<?xml version="1.0" encoding="UTF-8"?>

<!-- generated on Thu Oct  4 11:14:29 2018 by Eclipse SUMO GUI Version 1.0.0
<configuration xmlns:xsi="http://www.w3.org/2001/XMLSchema-instance" xsi:noNamespaceSchemaLocation="http://sumo.dlr.de/xsd/sumoConfiguration.xsd">

    <input>
        <net-file value="data/cross.net.xml"/>
        <route-files value="data/cross.rou.xml"/>
        <additional-files value="data/cross.det.xml"/>
    </input>

    <output>
        <tripinfo-output value="tripinfo.xml"/>
    </output>

    <time>
        <begin value="0"/>
    </time>

    <report>
        <verbose value="true"/>
        <no-step-log value="true"/>
    </report>

    <traci_server>
        <remote-port value="53381"/>
    </traci_server>

    <gui_only>
        <gui-settings-file value="data/cross.settings.xml"/>
    </gui_only>

</configuration>
-->

<tripinfos xmlns:xsi="http://www.w3.org/2001/XMLSchema-instance" xsi:noNamespaceSchemaLocation="http://sumo.dlr.de/xsd/tripinfo_file.xsd">
    <tripinfo id="car_2" depart="12.00" departLane="s2A_0" departPos="5.10" departSpeed="0.00" departDelay="0.00" arrival="52.00" arrivalLane="A2n_0" arrivalPos="189.60" arrivalSpeed="13.64" duration="40.00" routeLength="394.90" waitingTime="0.00" waitingCount="0" stopTime="0.00" timeLoss="11.78" rerouteNo="0" devices="tripinfo_car_2" vType="typeCar" speedFactor="1.01" vaporized=""/>
    <tripinfo id="car_4" depart="17.00" departLane="s2A_0" departPos="5.10" departSpeed="0.00" departDelay="0.00" arrival="57.00" arrivalLane="A2n_0" arrivalPos="189.60" arrivalSpeed="13.93" duration="40.00" routeLength="394.90" waitingTime="0.00" waitingCount="0" stopTime="0.00" timeLoss="11.53" rerouteNo="0" devices="tripinfo_car_4" vType="typeCar" speedFactor="1.03" vaporized=""/>
    <tripinfo id="car_6" depart="22.00" departLane="s2A_0" departPos="5.10" departSpeed="0.00" departDelay="1.00" arrival="61.00" arrivalLane="A2n_0" arrivalPos="189.60" arrivalSpeed="14.43" duration="39.00" routeLength="394.90" waitingTime="0.00" waitingCount="0" stopTime="0.00" timeLoss="11.71" rerouteNo="0" devices="tripinfo_car_6" vType="typeCar" speedFactor="1.05" vaporized=""/>
    <tripinfo id="car_7" depart="27.00" departLane="s2A_0" departPos="5.10" departSpeed="0.00" departDelay="5.00" arrival="69.00" arrivalLane="A2n_0" arrivalPos="189.60" arrivalSpeed="12.14" duration="42.00" routeLength="394.90" waitingTime="0.00" waitingCount="0" stopTime="0.00" timeLoss="9.48" rerouteNo="0" devices="tripinfo_car_7" vType="typeCar" speedFactor="0.89" vaporized=""/>
    <tripinfo id="car_0" depart="7.00" departLane="w2A_0" departPos="5.10" departSpeed="0.00" departDelay="0.00" arrival="85.00" arrivalLane="A2e_0" arrivalPos="189.60" arrivalSpeed="14.43" duration="78.00" routeLength="394.90" waitingTime="26.00" waitingCount="1" stopTime="0.00" timeLoss="50.55" rerouteNo="0" devices="tripinfo_car_0" vType="typeCar" speedFactor="1.06" vaporized=""/>
    <tripinfo id="car_3" depart="12.00" departLane="e2A_0" departPos="5.10" departSpeed="0.00" departDelay="0.00" arrival="86.00" arrivalLane="A2w_0" arrivalPos="189.60" arrivalSpeed="14.78" duration="74.00" routeLength="394.90" waitingTime="21.00" waitingCount="1" stopTime="0.00" timeLoss="47.56" rerouteNo="0" devices="tripinfo_car_3" vType="typeCar" speedFactor="1.08" vaporized=""/>
    <tripinfo id="car_9" depart="24.00" departLane="e2A_0" departPos="5.10" departSpeed="0.00" departDelay="0.00" arrival="87.00" arrivalLane="A2w_1" arrivalPos="189.60" arrivalSpeed="11.74" duration="63.00" routeLength="394.90" waitingTime="7.00" waitingCount="1" stopTime="0.00" timeLoss="28.87" rerouteNo="0" devices="tripinfo_car_9" vType="typeCar" speedFactor="0.86" vaporized=""/>
    <tripinfo id="car_1" depart="12.00" departLane="w2A_0" departPos="5.10" departSpeed="0.00" departDelay="2.00" arrival="87.00" arrivalLane="A2e_0" arrivalPos="189.60" arrivalSpeed="12.80" duration="75.00" routeLength="394.90" waitingTime="21.00" waitingCount="1" stopTime="0.00" timeLoss="44.29" rerouteNo="0" devices="tripinfo_car_1" vType="typeCar" speedFactor="0.94" vaporized=""/>
    <tripinfo id="car_20" depart="48.00" departLane="n2A_0" departPos="5.10" departSpeed="0.00" departDelay="0.00" arrival="88.00" arrivalLane="A2s_1" arrivalPos="189.60" arrivalSpeed="13.74" duration="40.00" routeLength="394.90" waitingTime="0.00" waitingCount="0" stopTime="0.00" timeLoss="12.07" rerouteNo="0" devices="tripinfo_car_20" vType="typeCar" speedFactor="1.02" vaporized=""/>
    <tripinfo id="car_11" depart="29.00" departLane="e2A_0" departPos="5.10" departSpeed="0.00" departDelay="2.00" arrival="88.00" arrivalLane="A2w_0" arrivalPos="189.60" arrivalSpeed="14.07" duration="59.00" routeLength="394.90" waitingTime="5.00" waitingCount="1" stopTime="0.00" timeLoss="30.93" rerouteNo="0" devices="tripinfo_car_11" vType="typeCar" speedFactor="1.03" vaporized=""/>
    <tripinfo id="car_12" depart="35.00" departLane="e2A_0" departPos="5.10" departSpeed="0.00" departDelay="7.00" arrival="88.00" arrivalLane="A2w_1" arrivalPos="189.60" arrivalSpeed="12.87" duration="53.00" routeLength="394.90" waitingTime="0.00" waitingCount="0" stopTime="0.00" timeLoss="25.57" rerouteNo="0" devices="tripinfo_car_12" vType="typeCar" speedFactor="1.05" vaporized=""/>
    <tripinfo id="car_8" depart="23.00" departLane="w2A_0" departPos="5.10" departSpeed="0.00" departDelay="1.00" arrival="89.00" arrivalLane="A2e_1" arrivalPos="189.60" arrivalSpeed="12.90" duration="66.00" routeLength="394.90" waitingTime="10.00" waitingCount="1" stopTime="0.00" timeLoss="34.97" rerouteNo="0" devices="tripinfo_car_8" vType="typeCar" speedFactor="0.94" vaporized=""/>
    <tripinfo id="car_13" depart="33.00" departLane="w2A_0" departPos="5.10" departSpeed="0.00" departDelay="4.00" arrival="90.00" arrivalLane="A2e_1" arrivalPos="189.60" arrivalSpeed="13.66" duration="57.00" routeLength="394.90" waitingTime="3.00" waitingCount="1" stopTime="0.00" timeLoss="31.54" rerouteNo="0" devices="tripinfo_car_13" vType="typeCar" speedFactor="1.12" vaporized=""/>
    <tripinfo id="car_14" depart="40.00" departLane="e2A_0" departPos="5.10" departSpeed="0.00" departDelay="8.00" arrival="90.00" arrivalLane="A2w_1" arrivalPos="189.60" arrivalSpeed="13.72" duration="50.00" routeLength="394.90" waitingTime="0.00" waitingCount="0" stopTime="0.00" timeLoss="20.67" rerouteNo="0" devices="tripinfo_car_14" vType="typeCar" speedFactor="0.99" vaporized=""/>
    <tripinfo id="car_5" depart="18.00" departLane="w2A_0" departPos="5.10" departSpeed="0.00" departDelay="0.00" arrival="90.00" arrivalLane="A2e_0" arrivalPos="189.60" arrivalSpeed="11.42" duration="72.00" routeLength="394.90" waitingTime="16.00" waitingCount="1" stopTime="0.00" timeLoss="36.90" rerouteNo="0" devices="tripinfo_car_5" vType="typeCar" speedFactor="0.83" vaporized=""/>
    <tripinfo id="car_10" depart="28.00" departLane="w2A_0" departPos="5.10" departSpeed="0.00" departDelay="1.00" arrival="91.00" arrivalLane="A2e_0" arrivalPos="189.60" arrivalSpeed="12.06" duration="63.00" routeLength="394.90" waitingTime="8.00" waitingCount="1" stopTime="0.00" timeLoss="36.73" rerouteNo="0" devices="tripinfo_car_10" vType="typeCar" speedFactor="1.09" vaporized=""/>
    <tripinfo id="car_15" depart="35.00" departLane="n2A_0" departPos="5.10" departSpeed="0.00" departDelay="0.00" arrival="96.00" arrivalLane="A2s_0" arrivalPos="189.60" arrivalSpeed="12.60" duration="61.00" routeLength="394.90" waitingTime="6.00" waitingCount="1" stopTime="0.00" timeLoss="29.78" rerouteNo="0" devices="tripinfo_car_15" vType="typeCar" speedFactor="0.93" vaporized=""/>
    <tripinfo id="car_18" depart="41.00" departLane="s2A_0" departPos="5.10" departSpeed="0.00" departDelay="0.00" arrival="100.00" arrivalLane="A2n_0" arrivalPos="189.60" arrivalSpeed="12.78" duration="59.00" routeLength="394.90" waitingTime="2.00" waitingCount="2" stopTime="0.00" timeLoss="28.33" rerouteNo="0" devices="tripinfo_car_18" vType="typeCar" speedFactor="0.94" vaporized=""/>
    <tripinfo id="car_21" depart="50.00" departLane="w2A_0" departPos="5.10" departSpeed="0.00" departDelay="0.00" arrival="105.00" arrivalLane="A2e_1" arrivalPos="189.60" arrivalSpeed="14.01" duration="55.00" routeLength="394.90" waitingTime="3.00" waitingCount="1" stopTime="0.00" timeLoss="26.19" rerouteNo="0" devices="tripinfo_car_21" vType="typeCar" speedFactor="1.01" vaporized=""/>
    <tripinfo id="car_19" depart="50.00" departLane="e2A_0" departPos="5.10" departSpeed="0.00" departDelay="5.00" arrival="106.00" arrivalLane="A2w_1" arrivalPos="189.60" arrivalSpeed="16.00" duration="56.00" routeLength="394.90" waitingTime="2.00" waitingCount="1" stopTime="0.00" timeLoss="30.90" rerouteNo="0" devices="tripinfo_car_19" vType="typeCar" speedFactor="1.16" vaporized=""/>
    <tripinfo id="car_17" depart="38.00" departLane="w2A_0" departPos="5.10" departSpeed="0.00" departDelay="0.00" arrival="106.00" arrivalLane="A2e_0" arrivalPos="189.60" arrivalSpeed="12.80" duration="68.00" routeLength="394.90" waitingTime="7.00" waitingCount="1" stopTime="0.00" timeLoss="37.02" rerouteNo="0" devices="tripinfo_car_17" vType="typeCar" speedFactor="0.94" vaporized=""/>
    <tripinfo id="car_16" depart="45.00" departLane="e2A_0" departPos="5.10" departSpeed="0.00" departDelay="10.00" arrival="107.00" arrivalLane="A2w_0" arrivalPos="189.60" arrivalSpeed="12.18" duration="62.00" routeLength="394.90" waitingTime="8.00" waitingCount="1" stopTime="0.00" timeLoss="28.71" rerouteNo="0" devices="tripinfo_car_16" vType="typeCar" speedFactor="0.88" vaporized=""/>
    <tripinfo id="car_26" depart="60.00" departLane="w2A_0" departPos="5.10" departSpeed="0.00" departDelay="2.00" arrival="107.00" arrivalLane="A2e_1" arrivalPos="189.60" arrivalSpeed="12.45" duration="47.00" routeLength="394.90" waitingTime="0.00" waitingCount="0" stopTime="0.00" timeLoss="15.62" rerouteNo="0" devices="tripinfo_car_26" vType="typeCar" speedFactor="0.92" vaporized=""/>
    <tripinfo id="car_22" depart="55.00" departLane="w2A_0" departPos="5.10" departSpeed="0.00" departDelay="4.00" arrival="108.00" arrivalLane="A2e_0" arrivalPos="189.60" arrivalSpeed="13.44" duration="53.00" routeLength="394.90" waitingTime="0.00" waitingCount="0" stopTime="0.00" timeLoss="23.74" rerouteNo="0" devices="tripinfo_car_22" vType="typeCar" speedFactor="0.98" vaporized=""/>
    <tripinfo id="car_23" depart="56.00" departLane="e2A_0" departPos="5.10" departSpeed="0.00" departDelay="0.00" arrival="109.00" arrivalLane="A2w_0" arrivalPos="189.60" arrivalSpeed="12.06" duration="53.00" routeLength="394.90" waitingTime="0.00" waitingCount="0" stopTime="0.00" timeLoss="20.13" rerouteNo="0" devices="tripinfo_car_23" vType="typeCar" speedFactor="0.89" vaporized=""/>
    <tripinfo id="car_25" depart="62.00" departLane="n2A_0" departPos="5.10" departSpeed="0.00" departDelay="4.00" arrival="116.00" arrivalLane="A2s_1" arrivalPos="189.60" arrivalSpeed="11.94" duration="54.00" routeLength="394.90" waitingTime="1.00" waitingCount="1" stopTime="0.00" timeLoss="20.76" rerouteNo="0" devices="tripinfo_car_25" vType="typeCar" speedFactor="0.87" vaporized=""/>
    <tripinfo id="car_29" depart="62.00" departLane="s2A_0" departPos="5.10" departSpeed="0.00" departDelay="0.00" arrival="116.00" arrivalLane="A2n_0" arrivalPos="189.60" arrivalSpeed="12.77" duration="54.00" routeLength="394.90" waitingTime="1.00" waitingCount="1" stopTime="0.00" timeLoss="22.84" rerouteNo="0" devices="tripinfo_car_29" vType="typeCar" speedFactor="0.93" vaporized=""/>
    <tripinfo id="car_24" depart="57.00" departLane="n2A_0" departPos="5.10" departSpeed="0.00" departDelay="0.00" arrival="117.00" arrivalLane="A2s_0" arrivalPos="189.60" arrivalSpeed="11.30" duration="60.00" routeLength="394.90" waitingTime="5.00" waitingCount="1" stopTime="0.00" timeLoss="25.13" rerouteNo="0" devices="tripinfo_car_24" vType="typeCar" speedFactor="0.83" vaporized=""/>
    <tripinfo id="car_27" depart="67.00" departLane="n2A_0" departPos="5.10" departSpeed="0.00" departDelay="6.00" arrival="119.00" arrivalLane="A2s_0" arrivalPos="189.60" arrivalSpeed="12.97" duration="52.00" routeLength="394.90" waitingTime="0.00" waitingCount="0" stopTime="0.00" timeLoss="21.24" rerouteNo="0" devices="tripinfo_car_27" vType="typeCar" speedFactor="0.95" vaporized=""/>
    <tripinfo id="car_35" depart="80.00" departLane="e2A_0" departPos="5.10" departSpeed="0.00" departDelay="0.00" arrival="119.00" arrivalLane="A2w_0" arrivalPos="189.60" arrivalSpeed="13.87" duration="39.00" routeLength="394.90" waitingTime="0.00" waitingCount="0" stopTime="0.00" timeLoss="11.06" rerouteNo="0" devices="tripinfo_car_35" vType="typeCar" speedFactor="1.02" vaporized=""/>
    <tripinfo id="car_37" depart="85.00" departLane="e2A_0" departPos="5.10" departSpeed="0.00" departDelay="1.00" arrival="122.00" arrivalLane="A2w_0" arrivalPos="189.60" arrivalSpeed="16.25" duration="37.00" routeLength="394.90" waitingTime="0.00" waitingCount="0" stopTime="0.00" timeLoss="12.62" rerouteNo="0" devices="tripinfo_car_37" vType="typeCar" speedFactor="1.18" vaporized=""/>
    <tripinfo id="car_38" depart="87.00" departLane="s2A_0" departPos="5.10" departSpeed="0.00" departDelay="2.00" arrival="125.00" arrivalLane="A2n_1" arrivalPos="189.60" arrivalSpeed="15.21" duration="38.00" routeLength="394.90" waitingTime="0.00" waitingCount="0" stopTime="0.00" timeLoss="12.12" rerouteNo="0" devices="tripinfo_car_38" vType="typeCar" speedFactor="1.10" vaporized=""/>
    <tripinfo id="car_30" depart="70.00" departLane="w2A_0" departPos="5.10" departSpeed="0.00" departDelay="5.00" arrival="125.00" arrivalLane="A2e_0" arrivalPos="189.60" arrivalSpeed="15.65" duration="55.00" routeLength="394.90" waitingTime="3.00" waitingCount="1" stopTime="0.00" timeLoss="30.63" rerouteNo="0" devices="tripinfo_car_30" vType="typeCar" speedFactor="1.18" vaporized=""/>
    <tripinfo id="car_28" depart="65.00" departLane="w2A_0" departPos="5.10" departSpeed="0.00" departDelay="4.00" arrival="126.00" arrivalLane="A2e_0" arrivalPos="189.60" arrivalSpeed="15.58" duration="61.00" routeLength="394.90" waitingTime="10.00" waitingCount="1" stopTime="0.00" timeLoss="35.26" rerouteNo="0" devices="tripinfo_car_28" vType="typeCar" speedFactor="1.13" vaporized=""/>
    <tripinfo id="car_33" depart="81.00" departLane="w2A_0" departPos="5.10" departSpeed="0.00" departDelay="3.00" arrival="128.00" arrivalLane="A2e_1" arrivalPos="189.60" arrivalSpeed="16.11" duration="47.00" routeLength="394.90" waitingTime="0.00" waitingCount="0" stopTime="0.00" timeLoss="21.94" rerouteNo="0" devices="tripinfo_car_33" vType="typeCar" speedFactor="1.17" vaporized=""/>
    <tripinfo id="car_31" depart="75.00" departLane="w2A_0" departPos="5.10" departSpeed="0.00" departDelay="7.00" arrival="129.00" arrivalLane="A2e_0" arrivalPos="189.60" arrivalSpeed="15.76" duration="54.00" routeLength="394.90" waitingTime="0.00" waitingCount="0" stopTime="0.00" timeLoss="28.66" rerouteNo="0" devices="tripinfo_car_31" vType="typeCar" speedFactor="1.15" vaporized=""/>
    <tripinfo id="car_42" depart="90.00" departLane="n2A_0" departPos="5.10" departSpeed="0.00" departDelay="0.00" arrival="130.00" arrivalLane="A2s_1" arrivalPos="189.60" arrivalSpeed="14.98" duration="40.00" routeLength="394.90" waitingTime="0.00" waitingCount="0" stopTime="0.00" timeLoss="13.47" rerouteNo="0" devices="tripinfo_car_42" vType="typeCar" speedFactor="1.09" vaporized=""/>
    <tripinfo id="car_44" depart="96.00" departLane="e2A_0" departPos="5.10" departSpeed="0.00" departDelay="3.00" arrival="136.00" arrivalLane="A2w_1" arrivalPos="189.60" arrivalSpeed="14.30" duration="40.00" routeLength="394.90" waitingTime="0.00" waitingCount="0" stopTime="0.00" timeLoss="12.04" rerouteNo="0" devices="tripinfo_car_44" vType="typeCar" speedFactor="1.04" vaporized=""/>
    <tripinfo id="car_36" depart="82.00" departLane="s2A_0" departPos="5.10" departSpeed="0.00" departDelay="0.00" arrival="136.00" arrivalLane="A2n_0" arrivalPos="189.60" arrivalSpeed="13.26" duration="54.00" routeLength="394.90" waitingTime="1.00" waitingCount="1" stopTime="0.00" timeLoss="23.89" rerouteNo="0" devices="tripinfo_car_36" vType="typeCar" speedFactor="0.97" vaporized=""/>
    <tripinfo id="car_39" depart="92.00" departLane="s2A_0" departPos="5.10" departSpeed="0.00" departDelay="4.00" arrival="136.00" arrivalLane="A2n_1" arrivalPos="189.60" arrivalSpeed="12.31" duration="44.00" routeLength="394.90" waitingTime="0.00" waitingCount="0" stopTime="0.00" timeLoss="11.81" rerouteNo="0" devices="tripinfo_car_39" vType="typeCar" speedFactor="0.90" vaporized=""/>
    <tripinfo id="car_32" depart="77.00" departLane="n2A_0" departPos="5.10" departSpeed="0.00" departDelay="0.00" arrival="137.00" arrivalLane="A2s_0" arrivalPos="189.60" arrivalSpeed="13.69" duration="60.00" routeLength="394.90" waitingTime="6.00" waitingCount="1" stopTime="0.00" timeLoss="31.05" rerouteNo="0" devices="tripinfo_car_32" vType="typeCar" speedFactor="1.01" vaporized=""/>
    <tripinfo id="car_47" depart="101.00" departLane="e2A_0" departPos="5.10" departSpeed="0.00" departDelay="6.00" arrival="144.00" arrivalLane="A2w_1" arrivalPos="189.60" arrivalSpeed="12.33" duration="43.00" routeLength="394.90" waitingTime="0.00" waitingCount="0" stopTime="0.00" timeLoss="10.89" rerouteNo="0" devices="tripinfo_car_47" vType="typeCar" speedFactor="0.90" vaporized=""/>
    <tripinfo id="car_40" depart="90.00" departLane="e2A_0" departPos="5.10" departSpeed="0.00" departDelay="2.00" arrival="145.00" arrivalLane="A2w_0" arrivalPos="189.60" arrivalSpeed="14.01" duration="55.00" routeLength="394.90" waitingTime="3.00" waitingCount="1" stopTime="0.00" timeLoss="27.16" rerouteNo="0" devices="tripinfo_car_40" vType="typeCar" speedFactor="1.03" vaporized=""/>
    <tripinfo id="car_43" depart="91.00" departLane="w2A_0" departPos="5.10" departSpeed="0.00" departDelay="0.00" arrival="145.00" arrivalLane="A2e_1" arrivalPos="189.60" arrivalSpeed="14.28" duration="54.00" routeLength="394.90" waitingTime="2.00" waitingCount="1" stopTime="0.00" timeLoss="26.15" rerouteNo="0" devices="tripinfo_car_43" vType="typeCar" speedFactor="1.04" vaporized=""/>
    <tripinfo id="car_34" depart="86.00" departLane="w2A_0" departPos="5.10" departSpeed="0.00" departDelay="7.00" arrival="146.00" arrivalLane="A2e_0" arrivalPos="189.60" arrivalSpeed="13.71" duration="60.00" routeLength="394.90" waitingTime="5.00" waitingCount="1" stopTime="0.00" timeLoss="30.71" rerouteNo="0" devices="tripinfo_car_34" vType="typeCar" speedFactor="0.99" vaporized=""/>
    <tripinfo id="car_46" depart="96.00" departLane="w2A_0" departPos="5.10" departSpeed="0.00" departDelay="2.00" arrival="147.00" arrivalLane="A2e_0" arrivalPos="189.60" arrivalSpeed="13.57" duration="51.00" routeLength="394.90" waitingTime="0.00" waitingCount="0" stopTime="0.00" timeLoss="22.40" rerouteNo="0" devices="tripinfo_car_46" vType="typeCar" speedFactor="1.00" vaporized=""/>
    <tripinfo id="car_50" depart="102.00" departLane="w2A_0" departPos="5.10" departSpeed="0.00" departDelay="0.00" arrival="148.00" arrivalLane="A2e_1" arrivalPos="189.60" arrivalSpeed="11.74" duration="46.00" routeLength="394.90" waitingTime="0.00" waitingCount="0" stopTime="0.00" timeLoss="12.09" rerouteNo="0" devices="tripinfo_car_50" vType="typeCar" speedFactor="0.85" vaporized=""/>
    <tripinfo id="car_51" depart="107.00" departLane="w2A_0" departPos="5.10" departSpeed="0.00" departDelay="3.00" arrival="149.00" arrivalLane="A2e_0" arrivalPos="189.60" arrivalSpeed="15.00" duration="42.00" routeLength="394.90" waitingTime="0.00" waitingCount="0" stopTime="0.00" timeLoss="17.15" rerouteNo="0" devices="tripinfo_car_51" vType="typeCar" speedFactor="1.17" vaporized=""/>
    <tripinfo id="car_48" depart="107.00" departLane="e2A_0" departPos="5.10" departSpeed="0.00" departDelay="11.00" arrival="150.00" arrivalLane="A2w_0" arrivalPos="189.60" arrivalSpeed="11.93" duration="43.00" routeLength="394.90" waitingTime="0.00" waitingCount="0" stopTime="0.00" timeLoss="10.35" rerouteNo="0" devices="tripinfo_car_48" vType="typeCar" speedFactor="0.88" vaporized=""/>
    <tripinfo id="car_49" depart="112.00" departLane="e2A_0" departPos="5.10" departSpeed="0.00" departDelay="11.00" arrival="156.00" arrivalLane="A2w_0" arrivalPos="189.60" arrivalSpeed="11.51" duration="44.00" routeLength="394.90" waitingTime="0.00" waitingCount="0" stopTime="0.00" timeLoss="10.56" rerouteNo="0" devices="tripinfo_car_49" vType="typeCar" speedFactor="0.85" vaporized=""/>
    <tripinfo id="car_52" depart="105.00" departLane="n2A_0" departPos="5.10" departSpeed="0.00" departDelay="0.00" arrival="165.00" arrivalLane="A2s_1" arrivalPos="189.60" arrivalSpeed="13.82" duration="60.00" routeLength="394.90" waitingTime="8.00" waitingCount="1" stopTime="0.00" timeLoss="31.89" rerouteNo="0" devices="tripinfo_car_52" vType="typeCar" speedFactor="1.02" vaporized=""/>
    <tripinfo id="car_45" depart="95.00" departLane="n2A_0" departPos="5.10" departSpeed="0.00" departDelay="1.00" arrival="165.00" arrivalLane="A2s_0" arrivalPos="189.60" arrivalSpeed="14.89" duration="70.00" routeLength="394.90" waitingTime="20.00" waitingCount="1" stopTime="0.00" timeLoss="43.48" rerouteNo="0" devices="tripinfo_car_45" vType="typeCar" speedFactor="1.09" vaporized=""/>
    <tripinfo id="car_41" depart="97.00" departLane="s2A_0" departPos="5.10" departSpeed="0.00" departDelay="8.00" arrival="166.00" arrivalLane="A2n_0" arrivalPos="189.60" arrivalSpeed="12.94" duration="69.00" routeLength="394.90" waitingTime="14.00" waitingCount="1" stopTime="0.00" timeLoss="38.35" rerouteNo="0" devices="tripinfo_car_41" vType="typeCar" speedFactor="0.96" vaporized=""/>
    <tripinfo id="car_57" depart="123.00" departLane="n2A_0" departPos="5.10" departSpeed="0.00" departDelay="3.00" arrival="167.00" arrivalLane="A2s_1" arrivalPos="189.60" arrivalSpeed="15.28" duration="44.00" routeLength="394.90" waitingTime="0.00" waitingCount="0" stopTime="0.00" timeLoss="18.52" rerouteNo="0" devices="tripinfo_car_57" vType="typeCar" speedFactor="1.14" vaporized=""/>
    <tripinfo id="car_55" depart="118.00" departLane="n2A_0" departPos="5.10" departSpeed="0.00" departDelay="0.00" arrival="167.00" arrivalLane="A2s_0" arrivalPos="189.60" arrivalSpeed="13.73" duration="49.00" routeLength="394.90" waitingTime="0.00" waitingCount="0" stopTime="0.00" timeLoss="20.34" rerouteNo="0" devices="tripinfo_car_55" vType="typeCar" speedFactor="1.00" vaporized=""/>
    <tripinfo id="car_59" depart="128.00" departLane="n2A_0" departPos="5.10" departSpeed="0.00" departDelay="0.00" arrival="169.00" arrivalLane="A2s_0" arrivalPos="189.60" arrivalSpeed="13.22" duration="41.00" routeLength="394.90" waitingTime="0.00" waitingCount="0" stopTime="0.00" timeLoss="11.37" rerouteNo="0" devices="tripinfo_car_59" vType="typeCar" speedFactor="0.97" vaporized=""/>
    <tripinfo id="car_62" depart="144.00" departLane="w2A_0" departPos="5.10" departSpeed="0.00" departDelay="2.00" arrival="189.00" arrivalLane="A2e_1" arrivalPos="189.60" arrivalSpeed="13.75" duration="45.00" routeLength="394.90" waitingTime="0.00" waitingCount="0" stopTime="0.00" timeLoss="16.55" rerouteNo="0" devices="tripinfo_car_62" vType="typeCar" speedFactor="1.02" vaporized=""/>
    <tripinfo id="car_65" depart="149.00" departLane="w2A_0" departPos="5.10" departSpeed="0.00" departDelay="1.00" arrival="192.00" arrivalLane="A2e_1" arrivalPos="189.60" arrivalSpeed="12.16" duration="43.00" routeLength="394.90" waitingTime="0.00" waitingCount="0" stopTime="0.00" timeLoss="10.41" rerouteNo="0" devices="tripinfo_car_65" vType="typeCar" speedFactor="0.88" vaporized=""/>
    <tripinfo id="car_73" depart="154.00" departLane="w2A_0" departPos="5.10" departSpeed="0.00" departDelay="0.00" arrival="194.00" arrivalLane="A2e_1" arrivalPos="189.60" arrivalSpeed="13.35" duration="40.00" routeLength="394.90" waitingTime="0.00" waitingCount="0" stopTime="0.00" timeLoss="12.41" rerouteNo="0" devices="tripinfo_car_73" vType="typeCar" speedFactor="1.06" vaporized=""/>
    <tripinfo id="car_61" depart="139.00" departLane="w2A_0" departPos="5.10" departSpeed="0.00" departDelay="0.00" arrival="196.00" arrivalLane="A2e_0" arrivalPos="189.60" arrivalSpeed="15.46" duration="57.00" routeLength="394.90" waitingTime="5.00" waitingCount="1" stopTime="0.00" timeLoss="31.41" rerouteNo="0" devices="tripinfo_car_61" vType="typeCar" speedFactor="1.12" vaporized=""/>
    <tripinfo id="car_53" depart="117.00" departLane="e2A_0" departPos="5.10" departSpeed="0.00" departDelay="9.00" arrival="196.00" arrivalLane="A2w_0" arrivalPos="189.60" arrivalSpeed="14.96" duration="79.00" routeLength="394.90" waitingTime="24.00" waitingCount="1" stopTime="0.00" timeLoss="52.35" rerouteNo="0" devices="tripinfo_car_53" vType="typeCar" speedFactor="1.10" vaporized=""/>
    <tripinfo id="car_54" depart="123.00" departLane="e2A_0" departPos="5.10" departSpeed="0.00" departDelay="14.00" arrival="197.00" arrivalLane="A2w_0" arrivalPos="189.60" arrivalSpeed="13.92" duration="74.00" routeLength="394.90" waitingTime="20.00" waitingCount="1" stopTime="0.00" timeLoss="44.88" rerouteNo="0" devices="tripinfo_car_54" vType="typeCar" speedFactor="1.00" vaporized=""/>
    <tripinfo id="car_58" depart="133.00" departLane="e2A_0" departPos="5.10" departSpeed="0.00" departDelay="8.00" arrival="198.00" arrivalLane="A2w_1" arrivalPos="189.60" arrivalSpeed="13.92" duration="65.00" routeLength="394.90" waitingTime="9.00" waitingCount="1" stopTime="0.00" timeLoss="37.05" rerouteNo="0" devices="tripinfo_car_58" vType="typeCar" speedFactor="1.02" vaporized=""/>
    <tripinfo id="car_56" depart="128.00" departLane="e2A_0" departPos="5.10" departSpeed="0.00" departDelay="9.00" arrival="199.00" arrivalLane="A2w_0" arrivalPos="189.60" arrivalSpeed="12.13" duration="71.00" routeLength="394.90" waitingTime="16.00" waitingCount="1" stopTime="0.00" timeLoss="38.66" rerouteNo="0" devices="tripinfo_car_56" vType="typeCar" speedFactor="0.90" vaporized=""/>
    <tripinfo id="car_63" depart="144.00" departLane="e2A_0" departPos="5.10" departSpeed="0.00" departDelay="0.00" arrival="200.00" arrivalLane="A2w_1" arrivalPos="189.60" arrivalSpeed="13.61" duration="56.00" routeLength="394.90" waitingTime="0.00" waitingCount="0" stopTime="0.00" timeLoss="26.79" rerouteNo="0" devices="tripinfo_car_63" vType="typeCar" speedFactor="0.99" vaporized=""/>
    <tripinfo id="car_74" depart="159.00" departLane="w2A_0" departPos="5.10" departSpeed="0.00" departDelay="1.00" arrival="200.00" arrivalLane="A2e_0" arrivalPos="189.60" arrivalSpeed="12.93" duration="41.00" routeLength="394.90" waitingTime="0.00" waitingCount="0" stopTime="0.00" timeLoss="11.03" rerouteNo="0" devices="tripinfo_car_74" vType="typeCar" speedFactor="0.96" vaporized=""/>
    <tripinfo id="car_60" depart="138.00" departLane="e2A_0" departPos="5.10" departSpeed="0.00" departDelay="5.00" arrival="200.00" arrivalLane="A2w_0" arrivalPos="189.60" arrivalSpeed="13.23" duration="62.00" routeLength="394.90" waitingTime="9.00" waitingCount="1" stopTime="0.00" timeLoss="35.63" rerouteNo="0" devices="tripinfo_car_60" vType="typeCar" speedFactor="1.08" vaporized=""/>
    <tripinfo id="car_66" depart="154.00" departLane="e2A_0" departPos="5.10" departSpeed="0.00" departDelay="6.00" arrival="202.00" arrivalLane="A2w_1" arrivalPos="189.60" arrivalSpeed="12.31" duration="48.00" routeLength="394.90" waitingTime="0.00" waitingCount="0" stopTime="0.00" timeLoss="16.45" rerouteNo="0" devices="tripinfo_car_66" vType="typeCar" speedFactor="0.91" vaporized=""/>
    <tripinfo id="car_64" depart="149.00" departLane="e2A_0" departPos="5.10" departSpeed="0.00" departDelay="3.00" arrival="202.00" arrivalLane="A2w_0" arrivalPos="189.60" arrivalSpeed="12.66" duration="53.00" routeLength="394.90" waitingTime="0.00" waitingCount="0" stopTime="0.00" timeLoss="22.37" rerouteNo="0" devices="tripinfo_car_64" vType="typeCar" speedFactor="0.94" vaporized=""/>
    <tripinfo id="car_68" depart="160.00" departLane="e2A_0" departPos="5.10" departSpeed="0.00" departDelay="11.00" arrival="204.00" arrivalLane="A2w_1" arrivalPos="189.60" arrivalSpeed="13.37" duration="44.00" routeLength="394.90" waitingTime="0.00" waitingCount="0" stopTime="0.00" timeLoss="16.09" rerouteNo="0" devices="tripinfo_car_68" vType="typeCar" speedFactor="1.04" vaporized=""/>
    <tripinfo id="car_75" depart="164.00" departLane="w2A_0" departPos="5.10" departSpeed="0.00" departDelay="4.00" arrival="204.00" arrivalLane="A2e_0" arrivalPos="189.60" arrivalSpeed="13.43" duration="40.00" routeLength="394.90" waitingTime="0.00" waitingCount="0" stopTime="0.00" timeLoss="10.74" rerouteNo="0" devices="tripinfo_car_75" vType="typeCar" speedFactor="0.98" vaporized=""/>
    <tripinfo id="car_69" depart="165.00" departLane="e2A_0" departPos="5.10" departSpeed="0.00" departDelay="14.00" arrival="204.00" arrivalLane="A2w_0" arrivalPos="189.60" arrivalSpeed="14.14" duration="39.00" routeLength="394.90" waitingTime="0.00" waitingCount="0" stopTime="0.00" timeLoss="11.08" rerouteNo="0" devices="tripinfo_car_69" vType="typeCar" speedFactor="1.02" vaporized=""/>
    <tripinfo id="car_79" depart="167.00" departLane="n2A_0" departPos="5.10" departSpeed="0.00" departDelay="0.00" arrival="206.00" arrivalLane="A2s_1" arrivalPos="189.60" arrivalSpeed="14.98" duration="39.00" routeLength="394.90" waitingTime="0.00" waitingCount="0" stopTime="0.00" timeLoss="11.95" rerouteNo="0" devices="tripinfo_car_79" vType="typeCar" speedFactor="1.09" vaporized=""/>
    <tripinfo id="car_72" depart="157.00" departLane="s2A_0" departPos="5.10" departSpeed="0.00" departDelay="4.00" arrival="216.00" arrivalLane="A2n_1" arrivalPos="189.60" arrivalSpeed="12.76" duration="59.00" routeLength="394.90" waitingTime="6.00" waitingCount="1" stopTime="0.00" timeLoss="28.42" rerouteNo="0" devices="tripinfo_car_72" vType="typeCar" speedFactor="0.94" vaporized=""/>