<?xml version="1.0" encoding="UTF-8"?>

<!-- generated on Thu Oct  4 14:36:46 2018 by Eclipse SUMO GUI Version 1.0.0
<configuration xmlns:xsi="http://www.w3.org/2001/XMLSchema-instance" xsi:noNamespaceSchemaLocation="http://sumo.dlr.de/xsd/sumoConfiguration.xsd">

    <input>
        <net-file value="data/cross.net.xml"/>
        <route-files value="data/cross.rou.xml"/>
        <additional-files value="data/cross.det.xml"/>
    </input>

    <output>
        <tripinfo-output value="tripinfo.xml"/>
    </output>

    <time>
        <begin value="0"/>
    </time>

    <report>
        <verbose value="true"/>
        <no-step-log value="true"/>
    </report>

    <traci_server>
        <remote-port value="54752"/>
    </traci_server>

    <gui_only>
        <gui-settings-file value="data/cross.settings.xml"/>
    </gui_only>

</configuration>
-->

<tripinfos xmlns:xsi="http://www.w3.org/2001/XMLSchema-instance" xsi:noNamespaceSchemaLocation="http://sumo.dlr.de/xsd/tripinfo_file.xsd">
    <tripinfo id="car_10" depart="17.00" departLane="s2A_0" departPos="5.10" departSpeed="0.00" departDelay="0.00" arrival="56.00" arrivalLane="A2n_0" arrivalPos="189.60" arrivalSpeed="14.98" duration="39.00" routeLength="394.90" waitingTime="0.00" waitingCount="0" stopTime="0.00" timeLoss="12.64" rerouteNo="0" devices="tripinfo_car_10" vType="typeCar" speedFactor="1.09" vaporized=""/>
    <tripinfo id="car_8" depart="16.00" departLane="n2A_0" departPos="5.10" departSpeed="0.00" departDelay="0.00" arrival="58.00" arrivalLane="A2s_0" arrivalPos="189.60" arrivalSpeed="12.74" duration="42.00" routeLength="394.90" waitingTime="0.00" waitingCount="0" stopTime="0.00" timeLoss="10.92" rerouteNo="0" devices="tripinfo_car_8" vType="typeCar" speedFactor="0.94" vaporized=""/>
    <tripinfo id="car_11" depart="22.00" departLane="s2A_0" departPos="5.10" departSpeed="0.00" departDelay="4.00" arrival="62.00" arrivalLane="A2n_0" arrivalPos="189.60" arrivalSpeed="13.94" duration="40.00" routeLength="394.90" waitingTime="0.00" waitingCount="0" stopTime="0.00" timeLoss="11.69" rerouteNo="0" devices="tripinfo_car_11" vType="typeCar" speedFactor="1.03" vaporized=""/>
    <tripinfo id="car_0" depart="0.00" departLane="e2A_0" departPos="5.10" departSpeed="0.00" departDelay="0.00" arrival="75.00" arrivalLane="A2w_0" arrivalPos="189.60" arrivalSpeed="14.40" duration="75.00" routeLength="394.90" waitingTime="22.00" waitingCount="1" stopTime="0.00" timeLoss="47.67" rerouteNo="0" devices="tripinfo_car_0" vType="typeCar" speedFactor="1.06" vaporized=""/>
    <tripinfo id="car_3" depart="7.00" departLane="w2A_0" departPos="5.10" departSpeed="0.00" departDelay="3.00" arrival="76.00" arrivalLane="A2e_1" arrivalPos="189.60" arrivalSpeed="14.99" duration="69.00" routeLength="394.90" waitingTime="16.00" waitingCount="1" stopTime="0.00" timeLoss="42.39" rerouteNo="0" devices="tripinfo_car_3" vType="typeCar" speedFactor="1.08" vaporized=""/>
    <tripinfo id="car_1" depart="2.00" departLane="w2A_0" departPos="5.10" departSpeed="0.00" departDelay="0.00" arrival="76.00" arrivalLane="A2e_0" arrivalPos="189.60" arrivalSpeed="12.82" duration="74.00" routeLength="394.90" waitingTime="20.00" waitingCount="1" stopTime="0.00" timeLoss="43.66" rerouteNo="0" devices="tripinfo_car_1" vType="typeCar" speedFactor="0.94" vaporized=""/>
    <tripinfo id="car_2" depart="5.00" departLane="e2A_0" departPos="5.10" departSpeed="0.00" departDelay="2.00" arrival="76.00" arrivalLane="A2w_1" arrivalPos="189.60" arrivalSpeed="13.70" duration="71.00" routeLength="394.90" waitingTime="18.00" waitingCount="1" stopTime="0.00" timeLoss="41.99" rerouteNo="0" devices="tripinfo_car_2" vType="typeCar" speedFactor="1.01" vaporized=""/>
    <tripinfo id="car_6" depart="15.00" departLane="e2A_0" departPos="5.10" departSpeed="0.00" departDelay="1.00" arrival="77.00" arrivalLane="A2w_1" arrivalPos="189.60" arrivalSpeed="14.52" duration="62.00" routeLength="394.90" waitingTime="8.00" waitingCount="1" stopTime="0.00" timeLoss="34.49" rerouteNo="0" devices="tripinfo_car_6" vType="typeCar" speedFactor="1.05" vaporized=""/>
    <tripinfo id="car_4" depart="12.00" departLane="w2A_0" departPos="5.10" departSpeed="0.00" departDelay="7.00" arrival="78.00" arrivalLane="A2e_0" arrivalPos="189.60" arrivalSpeed="14.03" duration="66.00" routeLength="394.90" waitingTime="13.00" waitingCount="1" stopTime="0.00" timeLoss="37.93" rerouteNo="0" devices="tripinfo_car_4" vType="typeCar" speedFactor="1.03" vaporized=""/>
    <tripinfo id="car_13" depart="25.00" departLane="e2A_0" departPos="5.10" departSpeed="0.00" departDelay="6.00" arrival="79.00" arrivalLane="A2w_1" arrivalPos="189.60" arrivalSpeed="15.47" duration="54.00" routeLength="394.90" waitingTime="1.00" waitingCount="1" stopTime="0.00" timeLoss="28.42" rerouteNo="0" devices="tripinfo_car_13" vType="typeCar" speedFactor="1.12" vaporized=""/>
    <tripinfo id="car_9" depart="17.00" departLane="w2A_0" departPos="5.10" departSpeed="0.00" departDelay="1.00" arrival="80.00" arrivalLane="A2e_1" arrivalPos="189.60" arrivalSpeed="11.80" duration="63.00" routeLength="394.90" waitingTime="6.00" waitingCount="1" stopTime="0.00" timeLoss="29.26" rerouteNo="0" devices="tripinfo_car_9" vType="typeCar" speedFactor="0.86" vaporized=""/>
    <tripinfo id="car_12" depart="22.00" departLane="w2A_0" departPos="5.10" departSpeed="0.00" departDelay="4.00" arrival="80.00" arrivalLane="A2e_0" arrivalPos="189.60" arrivalSpeed="14.31" duration="58.00" routeLength="394.90" waitingTime="2.00" waitingCount="1" stopTime="0.00" timeLoss="29.98" rerouteNo="0" devices="tripinfo_car_12" vType="typeCar" speedFactor="1.05" vaporized=""/>
    <tripinfo id="car_5" depart="10.00" departLane="e2A_0" departPos="5.10" departSpeed="0.00" departDelay="0.00" arrival="80.00" arrivalLane="A2w_0" arrivalPos="189.60" arrivalSpeed="11.49" duration="70.00" routeLength="394.90" waitingTime="14.00" waitingCount="1" stopTime="0.00" timeLoss="34.86" rerouteNo="0" devices="tripinfo_car_5" vType="typeCar" speedFactor="0.83" vaporized=""/>
    <tripinfo id="car_7" depart="20.00" departLane="e2A_0" departPos="5.10" departSpeed="0.00" departDelay="5.00" arrival="81.00" arrivalLane="A2w_0" arrivalPos="189.60" arrivalSpeed="12.08" duration="61.00" routeLength="394.90" waitingTime="7.00" waitingCount="1" stopTime="0.00" timeLoss="28.63" rerouteNo="0" devices="tripinfo_car_7" vType="typeCar" speedFactor="0.89" vaporized=""/>
    <tripinfo id="car_22" depart="35.00" departLane="n2A_0" departPos="5.10" departSpeed="0.00" departDelay="0.00" arrival="83.00" arrivalLane="A2s_1" arrivalPos="189.60" arrivalSpeed="13.32" duration="48.00" routeLength="394.90" waitingTime="0.00" waitingCount="0" stopTime="0.00" timeLoss="18.48" rerouteNo="0" devices="tripinfo_car_22" vType="typeCar" speedFactor="0.98" vaporized=""/>
    <tripinfo id="car_19" depart="33.00" departLane="s2A_0" departPos="5.10" departSpeed="0.00" departDelay="0.00" arrival="89.00" arrivalLane="A2n_0" arrivalPos="189.60" arrivalSpeed="15.87" duration="56.00" routeLength="394.90" waitingTime="2.00" waitingCount="1" stopTime="0.00" timeLoss="31.38" rerouteNo="0" devices="tripinfo_car_19" vType="typeCar" speedFactor="1.16" vaporized=""/>
    <tripinfo id="car_14" depart="27.00" departLane="w2A_0" departPos="5.10" departSpeed="0.00" departDelay="6.00" arrival="95.00" arrivalLane="A2e_1" arrivalPos="189.60" arrivalSpeed="13.38" duration="68.00" routeLength="394.90" waitingTime="10.00" waitingCount="1" stopTime="0.00" timeLoss="39.19" rerouteNo="0" devices="tripinfo_car_14" vType="typeCar" speedFactor="0.99" vaporized=""/>
    <tripinfo id="car_17" depart="32.00" departLane="w2A_0" departPos="5.10" departSpeed="0.00" departDelay="3.00" arrival="96.00" arrivalLane="A2e_0" arrivalPos="189.60" arrivalSpeed="12.87" duration="64.00" routeLength="394.90" waitingTime="6.00" waitingCount="1" stopTime="0.00" timeLoss="32.92" rerouteNo="0" devices="tripinfo_car_17" vType="typeCar" speedFactor="0.94" vaporized=""/>
    <tripinfo id="car_16" depart="35.00" departLane="e2A_0" departPos="5.10" departSpeed="0.00" departDelay="7.00" arrival="96.00" arrivalLane="A2w_1" arrivalPos="189.60" arrivalSpeed="12.04" duration="61.00" routeLength="394.90" waitingTime="6.00" waitingCount="1" stopTime="0.00" timeLoss="28.32" rerouteNo="0" devices="tripinfo_car_16" vType="typeCar" speedFactor="0.88" vaporized=""/>
    <tripinfo id="car_15" depart="30.00" departLane="e2A_0" departPos="5.10" departSpeed="0.00" departDelay="6.00" arrival="96.00" arrivalLane="A2w_0" arrivalPos="189.60" arrivalSpeed="12.49" duration="66.00" routeLength="394.90" waitingTime="7.00" waitingCount="1" stopTime="0.00" timeLoss="35.26" rerouteNo="0" devices="tripinfo_car_15" vType="typeCar" speedFactor="0.93" vaporized=""/>
    <tripinfo id="car_23" depart="38.00" departLane="w2A_0" departPos="5.10" departSpeed="0.00" departDelay="0.00" arrival="98.00" arrivalLane="A2e_1" arrivalPos="189.60" arrivalSpeed="12.26" duration="60.00" routeLength="394.90" waitingTime="5.00" waitingCount="1" stopTime="0.00" timeLoss="27.73" rerouteNo="0" devices="tripinfo_car_23" vType="typeCar" speedFactor="0.89" vaporized=""/>
    <tripinfo id="car_26" depart="51.00" departLane="w2A_0" departPos="5.10" departSpeed="0.00" departDelay="0.00" arrival="98.00" arrivalLane="A2e_0" arrivalPos="189.60" arrivalSpeed="12.42" duration="47.00" routeLength="394.90" waitingTime="0.00" waitingCount="0" stopTime="0.00" timeLoss="15.13" rerouteNo="0" devices="tripinfo_car_26" vType="typeCar" speedFactor="0.92" vaporized=""/>
    <tripinfo id="car_20" depart="46.00" departLane="e2A_0" departPos="5.10" departSpeed="0.00" departDelay="13.00" arrival="98.00" arrivalLane="A2w_1" arrivalPos="189.60" arrivalSpeed="13.60" duration="52.00" routeLength="394.90" waitingTime="0.00" waitingCount="0" stopTime="0.00" timeLoss="23.40" rerouteNo="0" devices="tripinfo_car_20" vType="typeCar" speedFactor="1.02" vaporized=""/>
    <tripinfo id="car_18" depart="40.00" departLane="e2A_0" departPos="5.10" departSpeed="0.00" departDelay="10.00" arrival="98.00" arrivalLane="A2w_0" arrivalPos="189.60" arrivalSpeed="12.69" duration="58.00" routeLength="394.90" waitingTime="3.00" waitingCount="1" stopTime="0.00" timeLoss="27.56" rerouteNo="0" devices="tripinfo_car_18" vType="typeCar" speedFactor="0.94" vaporized=""/>
    <tripinfo id="car_33" depart="61.00" departLane="w2A_0" departPos="5.10" departSpeed="0.00" departDelay="1.00" arrival="99.00" arrivalLane="A2e_0" arrivalPos="189.60" arrivalSpeed="14.34" duration="38.00" routeLength="394.90" waitingTime="0.00" waitingCount="0" stopTime="0.00" timeLoss="13.60" rerouteNo="0" devices="tripinfo_car_33" vType="typeCar" speedFactor="1.17" vaporized=""/>
    <tripinfo id="car_21" depart="51.00" departLane="e2A_0" departPos="5.10" departSpeed="0.00" departDelay="17.00" arrival="99.00" arrivalLane="A2w_1" arrivalPos="189.60" arrivalSpeed="13.86" duration="48.00" routeLength="394.90" waitingTime="0.00" waitingCount="0" stopTime="0.00" timeLoss="19.79" rerouteNo="0" devices="tripinfo_car_21" vType="typeCar" speedFactor="1.01" vaporized=""/>
    <tripinfo id="car_27" depart="56.00" departLane="w2A_0" departPos="5.10" departSpeed="0.00" departDelay="4.00" arrival="100.00" arrivalLane="A2e_1" arrivalPos="189.60" arrivalSpeed="12.90" duration="44.00" routeLength="394.90" waitingTime="0.00" waitingCount="0" stopTime="0.00" timeLoss="13.35" rerouteNo="0" devices="tripinfo_car_27" vType="typeCar" speedFactor="0.95" vaporized=""/>
    <tripinfo id="car_24" depart="56.00" departLane="e2A_0" departPos="5.10" departSpeed="0.00" departDelay="14.00" arrival="101.00" arrivalLane="A2w_0" arrivalPos="189.60" arrivalSpeed="11.16" duration="45.00" routeLength="394.90" waitingTime="0.00" waitingCount="0" stopTime="0.00" timeLoss="10.28" rerouteNo="0" devices="tripinfo_car_24" vType="typeCar" speedFactor="0.83" vaporized=""/>
    <tripinfo id="car_25" depart="61.00" departLane="e2A_0" departPos="5.10" departSpeed="0.00" departDelay="16.00" arrival="105.00" arrivalLane="A2w_0" arrivalPos="189.60" arrivalSpeed="11.86" duration="44.00" routeLength="394.90" waitingTime="0.00" waitingCount="0" stopTime="0.00" timeLoss="10.58" rerouteNo="0" devices="tripinfo_car_25" vType="typeCar" speedFactor="0.87" vaporized=""/>
    <tripinfo id="car_34" depart="66.00" departLane="w2A_0" departPos="5.10" departSpeed="0.00" departDelay="1.00" arrival="106.00" arrivalLane="A2e_0" arrivalPos="189.60" arrivalSpeed="13.48" duration="40.00" routeLength="394.90" waitingTime="0.00" waitingCount="0" stopTime="0.00" timeLoss="11.10" rerouteNo="0" devices="tripinfo_car_34" vType="typeCar" speedFactor="0.99" vaporized=""/>
    <tripinfo id="car_28" depart="66.00" departLane="e2A_0" departPos="5.10" departSpeed="0.00" departDelay="14.00" arrival="106.00" arrivalLane="A2w_0" arrivalPos="189.60" arrivalSpeed="12.68" duration="40.00" routeLength="394.90" waitingTime="0.00" waitingCount="0" stopTime="0.00" timeLoss="14.72" rerouteNo="0" devices="tripinfo_car_28" vType="typeCar" speedFactor="1.13" vaporized=""/>
    <tripinfo id="car_31" depart="71.00" departLane="e2A_0" departPos="5.10" departSpeed="0.00" departDelay="15.00" arrival="109.00" arrivalLane="A2w_0" arrivalPos="189.60" arrivalSpeed="15.78" duration="38.00" routeLength="394.90" waitingTime="0.00" waitingCount="0" stopTime="0.00" timeLoss="12.65" rerouteNo="0" devices="tripinfo_car_31" vType="typeCar" speedFactor="1.15" vaporized=""/>
    <tripinfo id="car_32" depart="76.00" departLane="e2A_0" departPos="5.10" departSpeed="0.00" departDelay="18.00" arrival="116.00" arrivalLane="A2w_0" arrivalPos="189.60" arrivalSpeed="13.90" duration="40.00" routeLength="394.90" waitingTime="0.00" waitingCount="0" stopTime="0.00" timeLoss="11.16" rerouteNo="0" devices="tripinfo_car_32" vType="typeCar" speedFactor="1.01" vaporized=""/>
    <tripinfo id="car_39" depart="79.00" departLane="w2A_0" departPos="5.10" departSpeed="0.00" departDelay="0.00" arrival="120.00" arrivalLane="A2e_0" arrivalPos="189.60" arrivalSpeed="12.38" duration="41.00" routeLength="394.90" waitingTime="0.00" waitingCount="0" stopTime="0.00" timeLoss="9.39" rerouteNo="0" devices="tripinfo_car_39" vType="typeCar" speedFactor="0.90" vaporized=""/>
    <tripinfo id="car_36" depart="81.00" departLane="e2A_0" departPos="5.10" departSpeed="0.00" departDelay="8.00" arrival="122.00" arrivalLane="A2w_0" arrivalPos="189.60" arrivalSpeed="13.41" duration="41.00" routeLength="394.90" waitingTime="0.00" waitingCount="0" stopTime="0.00" timeLoss="11.24" rerouteNo="0" devices="tripinfo_car_36" vType="typeCar" speedFactor="0.97" vaporized=""/>
    <tripinfo id="car_40" depart="84.00" departLane="w2A_0" departPos="5.10" departSpeed="0.00" departDelay="3.00" arrival="124.00" arrivalLane="A2e_0" arrivalPos="189.60" arrivalSpeed="14.20" duration="40.00" routeLength="394.90" waitingTime="0.00" waitingCount="0" stopTime="0.00" timeLoss="12.22" rerouteNo="0" devices="tripinfo_car_40" vType="typeCar" speedFactor="1.03" vaporized=""/>
    <tripinfo id="car_42" depart="88.00" departLane="s2A_0" departPos="5.10" departSpeed="0.00" departDelay="0.00" arrival="127.00" arrivalLane="A2n_0" arrivalPos="189.60" arrivalSpeed="15.01" duration="39.00" routeLength="394.90" waitingTime="0.00" waitingCount="0" stopTime="0.00" timeLoss="12.12" rerouteNo="0" devices="tripinfo_car_42" vType="typeCar" speedFactor="1.09" vaporized=""/>
    <tripinfo id="car_30" depart="59.00" departLane="n2A_0" departPos="5.10" departSpeed="0.00" departDelay="3.00" arrival="135.00" arrivalLane="A2s_0" arrivalPos="189.60" arrivalSpeed="15.97" duration="76.00" routeLength="394.90" waitingTime="23.00" waitingCount="1" stopTime="0.00" timeLoss="51.60" rerouteNo="0" devices="tripinfo_car_30" vType="typeCar" speedFactor="1.18" vaporized=""/>
    <tripinfo id="car_38" depart="78.00" departLane="n2A_0" departPos="5.10" departSpeed="0.00" departDelay="0.00" arrival="137.00" arrivalLane="A2s_1" arrivalPos="189.60" arrivalSpeed="15.24" duration="59.00" routeLength="394.90" waitingTime="4.00" waitingCount="1" stopTime="0.00" timeLoss="33.07" rerouteNo="0" devices="tripinfo_car_38" vType="typeCar" speedFactor="1.10" vaporized=""/>
    <tripinfo id="car_29" depart="54.00" departLane="n2A_0" departPos="5.10" departSpeed="0.00" departDelay="0.00" arrival="137.00" arrivalLane="A2s_0" arrivalPos="189.60" arrivalSpeed="12.91" duration="83.00" routeLength="394.90" waitingTime="28.00" waitingCount="1" stopTime="0.00" timeLoss="52.00" rerouteNo="0" devices="tripinfo_car_29" vType="typeCar" speedFactor="0.93" vaporized=""/>
    <tripinfo id="car_35" depart="66.00" departLane="n2A_0" departPos="5.10" departSpeed="0.00" departDelay="0.00" arrival="139.00" arrivalLane="A2s_0" arrivalPos="189.60" arrivalSpeed="14.13" duration="73.00" routeLength="394.90" waitingTime="20.00" waitingCount="1" stopTime="0.00" timeLoss="44.24" rerouteNo="0" devices="tripinfo_car_35" vType="typeCar" speedFactor="1.02" vaporized=""/>
    <tripinfo id="car_37" depart="86.00" departLane="e2A_0" departPos="5.10" departSpeed="0.00" departDelay="10.00" arrival="155.00" arrivalLane="A2w_0" arrivalPos="189.60" arrivalSpeed="16.08" duration="69.00" routeLength="394.90" waitingTime="18.00" waitingCount="1" stopTime="0.00" timeLoss="44.80" rerouteNo="0" devices="tripinfo_car_37" vType="typeCar" speedFactor="1.18" vaporized=""/>
    <tripinfo id="car_43" depart="91.00" departLane="e2A_0" departPos="5.10" departSpeed="0.00" departDelay="1.00" arrival="156.00" arrivalLane="A2w_1" arrivalPos="189.60" arrivalSpeed="14.17" duration="65.00" routeLength="394.90" waitingTime="10.00" waitingCount="1" stopTime="0.00" timeLoss="37.03" rerouteNo="0" devices="tripinfo_car_43" vType="typeCar" speedFactor="1.04" vaporized=""/>
    <tripinfo id="car_46" depart="95.00" departLane="w2A_0" departPos="5.10" departSpeed="0.00" departDelay="2.00" arrival="156.00" arrivalLane="A2e_1" arrivalPos="189.60" arrivalSpeed="13.55" duration="61.00" routeLength="394.90" waitingTime="8.00" waitingCount="1" stopTime="0.00" timeLoss="31.63" rerouteNo="0" devices="tripinfo_car_46" vType="typeCar" speedFactor="1.00" vaporized=""/>
    <tripinfo id="car_41" depart="90.00" departLane="w2A_0" departPos="5.10" departSpeed="0.00" departDelay="4.00" arrival="156.00" arrivalLane="A2e_0" arrivalPos="189.60" arrivalSpeed="12.90" duration="66.00" routeLength="394.90" waitingTime="14.00" waitingCount="1" stopTime="0.00" timeLoss="35.47" rerouteNo="0" devices="tripinfo_car_41" vType="typeCar" speedFactor="0.96" vaporized=""/>
    <tripinfo id="car_44" depart="96.00" departLane="e2A_0" departPos="5.10" departSpeed="0.00" departDelay="5.00" arrival="157.00" arrivalLane="A2w_0" arrivalPos="189.60" arrivalSpeed="14.23" duration="61.00" routeLength="394.90" waitingTime="8.00" waitingCount="1" stopTime="0.00" timeLoss="33.75" rerouteNo="0" devices="tripinfo_car_44" vType="typeCar" speedFactor="1.04" vaporized=""/>
    <tripinfo id="car_48" depart="100.00" departLane="w2A_0" departPos="5.10" departSpeed="0.00" departDelay="2.00" arrival="158.00" arrivalLane="A2e_0" arrivalPos="189.60" arrivalSpeed="12.11" duration="58.00" routeLength="394.90" waitingTime="4.00" waitingCount="1" stopTime="0.00" timeLoss="25.45" rerouteNo="0" devices="tripinfo_car_48" vType="typeCar" speedFactor="0.88" vaporized=""/>
    <tripinfo id="car_45" depart="101.00" departLane="e2A_0" departPos="5.10" departSpeed="0.00" departDelay="9.00" arrival="159.00" arrivalLane="A2w_1" arrivalPos="189.60" arrivalSpeed="14.99" duration="58.00" routeLength="394.90" waitingTime="3.00" waitingCount="1" stopTime="0.00" timeLoss="31.09" rerouteNo="0" devices="tripinfo_car_45" vType="typeCar" speedFactor="1.09" vaporized=""/>
    <tripinfo id="car_49" depart="105.00" departLane="w2A_0" departPos="5.10" departSpeed="0.00" departDelay="6.00" arrival="159.00" arrivalLane="A2e_1" arrivalPos="189.60" arrivalSpeed="11.67" duration="54.00" routeLength="394.90" waitingTime="0.00" waitingCount="0" stopTime="0.00" timeLoss="19.61" rerouteNo="0" devices="tripinfo_car_49" vType="typeCar" speedFactor="0.85" vaporized=""/>
    <tripinfo id="car_50" depart="111.00" departLane="w2A_0" departPos="5.10" departSpeed="0.00" departDelay="7.00" arrival="160.00" arrivalLane="A2e_0" arrivalPos="189.60" arrivalSpeed="11.64" duration="49.00" routeLength="394.90" waitingTime="0.00" waitingCount="0" stopTime="0.00" timeLoss="15.67" rerouteNo="0" devices="tripinfo_car_50" vType="typeCar" speedFactor="0.85" vaporized=""/>
    <tripinfo id="car_47" depart="106.00" departLane="e2A_0" departPos="5.10" departSpeed="0.00" departDelay="11.00" arrival="160.00" arrivalLane="A2w_0" arrivalPos="189.60" arrivalSpeed="12.15" duration="54.00" routeLength="394.90" waitingTime="0.00" waitingCount="0" stopTime="0.00" timeLoss="21.89" rerouteNo="0" devices="tripinfo_car_47" vType="typeCar" speedFactor="0.90" vaporized=""/>
    <tripinfo id="car_62" depart="124.00" departLane="s2A_0" departPos="5.10" departSpeed="0.00" departDelay="0.00" arrival="163.00" arrivalLane="A2n_0" arrivalPos="189.60" arrivalSpeed="13.99" duration="39.00" routeLength="394.90" waitingTime="0.00" waitingCount="0" stopTime="0.00" timeLoss="10.96" rerouteNo="0" devices="tripinfo_car_62" vType="typeCar" speedFactor="1.02" vaporized=""/>
    <tripinfo id="car_53" depart="111.00" departLane="n2A_0" departPos="5.10" departSpeed="0.00" departDelay="0.00" arrival="166.00" arrivalLane="A2s_1" arrivalPos="189.60" arrivalSpeed="15.02" duration="55.00" routeLength="394.90" waitingTime="3.00" waitingCount="1" stopTime="0.00" timeLoss="28.66" rerouteNo="0" devices="tripinfo_car_53" vType="typeCar" speedFactor="1.10" vaporized=""/>
    <tripinfo id="car_51" depart="106.00" departLane="n2A_0" departPos="5.10" departSpeed="0.00" departDelay="0.00" arrival="170.00" arrivalLane="A2s_0" arrivalPos="189.60" arrivalSpeed="15.82" duration="64.00" routeLength="394.90" waitingTime="12.00" waitingCount="2" stopTime="0.00" timeLoss="38.72" rerouteNo="0" devices="tripinfo_car_51" vType="typeCar" speedFactor="1.17" vaporized=""/>
    <tripinfo id="car_58" depart="118.00" departLane="n2A_0" departPos="5.10" departSpeed="0.00" departDelay="0.00" arrival="170.00" arrivalLane="A2s_1" arrivalPos="189.60" arrivalSpeed="14.01" duration="52.00" routeLength="394.90" waitingTime="0.00" waitingCount="0" stopTime="0.00" timeLoss="23.26" rerouteNo="0" devices="tripinfo_car_58" vType="typeCar" speedFactor="1.02" vaporized=""/>
    <tripinfo id="car_60" depart="123.00" departLane="n2A_0" departPos="5.10" departSpeed="0.00" departDelay="2.00" arrival="171.00" arrivalLane="A2s_0" arrivalPos="189.60" arrivalSpeed="14.97" duration="48.00" routeLength="394.90" waitingTime="0.00" waitingCount="0" stopTime="0.00" timeLoss="21.39" rerouteNo="0" devices="tripinfo_car_60" vType="typeCar" speedFactor="1.08" vaporized=""/>
    <tripinfo id="car_55" depart="112.00" departLane="e2A_0" departPos="5.10" departSpeed="0.00" departDelay="1.00" arrival="176.00" arrivalLane="A2w_1" arrivalPos="189.60" arrivalSpeed="13.82" duration="64.00" routeLength="394.90" waitingTime="10.00" waitingCount="1" stopTime="0.00" timeLoss="34.77" rerouteNo="0" devices="tripinfo_car_55" vType="typeCar" speedFactor="1.00" vaporized=""/>
    <tripinfo id="car_56" depart="117.00" departLane="e2A_0" departPos="5.10" departSpeed="0.00" departDelay="4.00" arrival="176.00" arrivalLane="A2w_0" arrivalPos="189.60" arrivalSpeed="12.38" duration="59.00" routeLength="394.90" waitingTime="4.00" waitingCount="1" stopTime="0.00" timeLoss="27.35" rerouteNo="0" devices="tripinfo_car_56" vType="typeCar" speedFactor="0.90" vaporized=""/>
    <tripinfo id="car_69" depart="137.00" departLane="n2A_0" departPos="5.10" departSpeed="0.00" departDelay="0.00" arrival="178.00" arrivalLane="A2s_1" arrivalPos="189.60" arrivalSpeed="13.98" duration="41.00" routeLength="394.90" waitingTime="0.00" waitingCount="0" stopTime="0.00" timeLoss="13.14" rerouteNo="0" devices="tripinfo_car_69" vType="typeCar" speedFactor="1.02" vaporized=""/>
    <tripinfo id="car_63" depart="127.00" departLane="e2A_0" departPos="5.10" departSpeed="0.00" departDelay="3.00" arrival="178.00" arrivalLane="A2w_1" arrivalPos="189.60" arrivalSpeed="13.50" duration="51.00" routeLength="394.90" waitingTime="0.00" waitingCount="0" stopTime="0.00" timeLoss="21.84" rerouteNo="0" devices="tripinfo_car_63" vType="typeCar" speedFactor="0.99" vaporized=""/>
    <tripinfo id="car_57" depart="122.00" departLane="e2A_0" departPos="5.10" departSpeed="0.00" departDelay="6.00" arrival="178.00" arrivalLane="A2w_0" arrivalPos="189.60" arrivalSpeed="13.64" duration="56.00" routeLength="394.90" waitingTime="2.00" waitingCount="1" stopTime="0.00" timeLoss="30.70" rerouteNo="0" devices="tripinfo_car_57" vType="typeCar" speedFactor="1.14" vaporized=""/>
    <tripinfo id="car_54" depart="121.00" departLane="w2A_0" departPos="5.10" departSpeed="0.00" departDelay="10.00" arrival="179.00" arrivalLane="A2e_1" arrivalPos="189.60" arrivalSpeed="13.74" duration="58.00" routeLength="394.90" waitingTime="3.00" waitingCount="1" stopTime="0.00" timeLoss="29.44" rerouteNo="0" devices="tripinfo_car_54" vType="typeCar" speedFactor="1.00" vaporized=""/>
    <tripinfo id="car_52" depart="116.00" departLane="w2A_0" departPos="5.10" departSpeed="0.00" departDelay="8.00" arrival="179.00" arrivalLane="A2e_0" arrivalPos="189.60" arrivalSpeed="13.93" duration="63.00" routeLength="394.90" waitingTime="6.00" waitingCount="1" stopTime="0.00" timeLoss="34.46" rerouteNo="0" devices="tripinfo_car_52" vType="typeCar" speedFactor="1.02" vaporized=""/>
    <tripinfo id="car_68" depart="132.00" departLane="e2A_0" departPos="5.10" departSpeed="0.00" departDelay="0.00" arrival="180.00" arrivalLane="A2w_0" arrivalPos="189.60" arrivalSpeed="14.12" duration="48.00" routeLength="394.90" waitingTime="0.00" waitingCount="0" stopTime="0.00" timeLoss="19.83" rerouteNo="0" devices="tripinfo_car_68" vType="typeCar" speedFactor="1.04" vaporized=""/>
    <tripinfo id="car_61" depart="131.00" departLane="w2A_0" departPos="5.10" departSpeed="0.00" departDelay="10.00" arrival="181.00" arrivalLane="A2e_1" arrivalPos="189.60" arrivalSpeed="15.46" duration="50.00" routeLength="394.90" waitingTime="0.00" waitingCount="0" stopTime="0.00" timeLoss="24.09" rerouteNo="0" devices="tripinfo_car_61" vType="typeCar" speedFactor="1.12" vaporized=""/>
    <tripinfo id="car_59" depart="126.00" departLane="w2A_0" departPos="5.10" departSpeed="0.00" departDelay="6.00" arrival="182.00" arrivalLane="A2e_0" arrivalPos="189.60" arrivalSpeed="13.40" duration="56.00" routeLength="394.90" waitingTime="0.00" waitingCount="0" stopTime="0.00" timeLoss="26.02" rerouteNo="0" devices="tripinfo_car_59" vType="typeCar" speedFactor="0.97" vaporized=""/>
    <tripinfo id="car_70" depart="137.00" departLane="s2A_0" departPos="5.10" departSpeed="0.00" departDelay="0.00" arrival="183.00" arrivalLane="A2n_1" arrivalPos="189.60" arrivalSpeed="14.00" duration="46.00" routeLength="394.90" waitingTime="0.00" waitingCount="0" stopTime="0.00" timeLoss="17.47" rerouteNo="0" devices="tripinfo_car_70" vType="typeCar" speedFactor="1.02" vaporized=""/>
    <tripinfo id="car_66" depart="130.00" departLane="n2A_0" departPos="5.10" departSpeed="0.00" departDelay="0.00" arrival="187.00" arrivalLane="A2s_0" arrivalPos="189.60" arrivalSpeed="12.28" duration="57.00" routeLength="394.90" waitingTime="2.00" waitingCount="1" stopTime="0.00" timeLoss="25.10" rerouteNo="0" devices="tripinfo_car_66" vType="typeCar" speedFactor="0.91" vaporized=""/>
    <tripinfo id="car_74" depart="143.00" departLane="n2A_0" departPos="5.10" departSpeed="0.00" departDelay="0.00" arrival="187.00" arrivalLane="A2s_1" arrivalPos="189.60" arrivalSpeed="13.00" duration="44.00" routeLength="394.90" waitingTime="0.00" waitingCount="0" stopTime="0.00" timeLoss="13.82" rerouteNo="0" devices="tripinfo_car_74" vType="typeCar" speedFactor="0.96" vaporized=""/>
    <tripinfo id="car_67" depart="130.00" departLane="s2A_0" departPos="5.10" departSpeed="0.00" departDelay="0.00" arrival="189.00" arrivalLane="A2n_0" arrivalPos="189.60" arrivalSpeed="12.67" duration="59.00" routeLength="394.90" waitingTime="3.00" waitingCount="1" stopTime="0.00" timeLoss="27.66" rerouteNo="0" devices="tripinfo_car_67" vType="typeCar" speedFactor="0.91" vaporized=""/>
    <tripinfo id="car_75" depart="143.00" departLane="e2A_0" departPos="5.10" departSpeed="0.00" departDelay="0.00" arrival="196.00" arrivalLane="A2w_1" arrivalPos="189.60" arrivalSpeed="13.61" duration="53.00" routeLength="394.90" waitingTime="1.00" waitingCount="1" stopTime="0.00" timeLoss="23.36" rerouteNo="0" devices="tripinfo_car_75" vType="typeCar" speedFactor="0.98" vaporized=""/>
    <tripinfo id="car_65" depart="141.00" departLane="w2A_0" departPos="5.10" departSpeed="0.00" departDelay="12.00" arrival="196.00" arrivalLane="A2e_1" arrivalPos="189.60" arrivalSpeed="12.05" duration="55.00" routeLength="394.90" waitingTime="0.00" waitingCount="0" stopTime="0.00" timeLoss="22.76" rerouteNo="0" devices="tripinfo_car_65" vType="typeCar" speedFactor="0.88" vaporized=""/>
    <tripinfo id="car_64" depart="136.00" departLane="w2A_0" departPos="5.10" departSpeed="0.00" departDelay="10.00" arrival="196.00" arrivalLane="A2e_0" arrivalPos="189.60" arrivalSpeed="12.63" duration="60.00" routeLength="394.90" waitingTime="6.00" waitingCount="1" stopTime="0.00" timeLoss="29.32" rerouteNo="0" devices="tripinfo_car_64" vType="typeCar" speedFactor="0.94" vaporized=""/>
    <tripinfo id="car_79" depart="157.00" departLane="n2A_0" departPos="5.10" departSpeed="0.00" departDelay="0.00" arrival="196.00" arrivalLane="A2s_1" arrivalPos="189.60" arrivalSpeed="14.75" duration="39.00" routeLength="394.90" waitingTime="0.00" waitingCount="0" stopTime="0.00" timeLoss="12.78" rerouteNo="0" devices="tripinfo_car_79" vType="typeCar" speedFactor="1.09" vaporized=""/>