<?xml version="1.0" encoding="UTF-8"?>

<!-- generated on Thu Oct  4 10:59:39 2018 by Eclipse SUMO GUI Version 1.0.0
<configuration xmlns:xsi="http://www.w3.org/2001/XMLSchema-instance" xsi:noNamespaceSchemaLocation="http://sumo.dlr.de/xsd/sumoConfiguration.xsd">

    <input>
        <net-file value="data/cross.net.xml"/>
        <route-files value="data/cross.rou.xml"/>
        <additional-files value="data/cross.det.xml"/>
    </input>

    <output>
        <tripinfo-output value="tripinfo.xml"/>
    </output>

    <time>
        <begin value="0"/>
    </time>

    <report>
        <verbose value="true"/>
        <no-step-log value="true"/>
    </report>

    <traci_server>
        <remote-port value="53304"/>
    </traci_server>

    <gui_only>
        <gui-settings-file value="data/cross.settings.xml"/>
    </gui_only>

</configuration>
-->

<tripinfos xmlns:xsi="http://www.w3.org/2001/XMLSchema-instance" xsi:noNamespaceSchemaLocation="http://sumo.dlr.de/xsd/tripinfo_file.xsd">
    <tripinfo id="car_2" depart="7.00" departLane="w2A_0" departPos="5.10" departSpeed="0.00" departDelay="0.00" arrival="47.00" arrivalLane="A2e_0" arrivalPos="189.60" arrivalSpeed="14.00" duration="40.00" routeLength="394.90" waitingTime="0.00" waitingCount="0" stopTime="0.00" timeLoss="10.95" rerouteNo="0" devices="tripinfo_car_2" vType="typeCar" speedFactor="1.01" vaporized=""/>
    <tripinfo id="car_1" depart="6.00" departLane="e2A_0" departPos="5.10" departSpeed="0.00" departDelay="0.00" arrival="47.00" arrivalLane="A2w_0" arrivalPos="189.60" arrivalSpeed="12.95" duration="41.00" routeLength="394.90" waitingTime="0.00" waitingCount="0" stopTime="0.00" timeLoss="10.21" rerouteNo="0" devices="tripinfo_car_1" vType="typeCar" speedFactor="0.94" vaporized=""/>
    <tripinfo id="car_0" depart="6.00" departLane="n2A_0" departPos="5.10" departSpeed="0.00" departDelay="0.00" arrival="65.00" arrivalLane="A2s_0" arrivalPos="189.60" arrivalSpeed="14.39" duration="59.00" routeLength="394.90" waitingTime="5.00" waitingCount="1" stopTime="0.00" timeLoss="31.73" rerouteNo="0" devices="tripinfo_car_0" vType="typeCar" speedFactor="1.06" vaporized=""/>
    <tripinfo id="car_3" depart="10.00" departLane="s2A_0" departPos="5.10" departSpeed="0.00" departDelay="0.00" arrival="66.00" arrivalLane="A2n_0" arrivalPos="189.60" arrivalSpeed="14.89" duration="56.00" routeLength="394.90" waitingTime="3.00" waitingCount="1" stopTime="0.00" timeLoss="28.97" rerouteNo="0" devices="tripinfo_car_3" vType="typeCar" speedFactor="1.08" vaporized=""/>
    <tripinfo id="car_7" depart="29.00" departLane="n2A_0" departPos="5.10" departSpeed="0.00" departDelay="0.00" arrival="71.00" arrivalLane="A2s_0" arrivalPos="189.60" arrivalSpeed="12.23" duration="42.00" routeLength="394.90" waitingTime="0.00" waitingCount="0" stopTime="0.00" timeLoss="9.40" rerouteNo="0" devices="tripinfo_car_7" vType="typeCar" speedFactor="0.89" vaporized=""/>
    <tripinfo id="car_10" depart="34.00" departLane="n2A_0" departPos="5.10" departSpeed="0.00" departDelay="1.00" arrival="73.00" arrivalLane="A2s_0" arrivalPos="189.60" arrivalSpeed="14.26" duration="39.00" routeLength="394.90" waitingTime="0.00" waitingCount="0" stopTime="0.00" timeLoss="12.10" rerouteNo="0" devices="tripinfo_car_10" vType="typeCar" speedFactor="1.09" vaporized=""/>
    <tripinfo id="car_6" depart="24.00" departLane="w2A_0" departPos="5.10" departSpeed="0.00" departDelay="1.00" arrival="85.00" arrivalLane="A2e_0" arrivalPos="189.60" arrivalSpeed="14.28" duration="61.00" routeLength="394.90" waitingTime="8.00" waitingCount="1" stopTime="0.00" timeLoss="33.63" rerouteNo="0" devices="tripinfo_car_6" vType="typeCar" speedFactor="1.05" vaporized=""/>
    <tripinfo id="car_4" depart="16.00" departLane="e2A_0" departPos="5.10" departSpeed="0.00" departDelay="0.00" arrival="85.00" arrivalLane="A2w_0" arrivalPos="189.60" arrivalSpeed="13.93" duration="69.00" routeLength="394.90" waitingTime="18.00" waitingCount="1" stopTime="0.00" timeLoss="40.88" rerouteNo="0" devices="tripinfo_car_4" vType="typeCar" speedFactor="1.03" vaporized=""/>
    <tripinfo id="car_9" depart="31.00" departLane="e2A_0" departPos="5.10" departSpeed="0.00" departDelay="0.00" arrival="86.00" arrivalLane="A2w_1" arrivalPos="189.60" arrivalSpeed="11.83" duration="55.00" routeLength="394.90" waitingTime="2.00" waitingCount="1" stopTime="0.00" timeLoss="21.44" rerouteNo="0" devices="tripinfo_car_9" vType="typeCar" speedFactor="0.86" vaporized=""/>
    <tripinfo id="car_5" depart="19.00" departLane="w2A_0" departPos="5.10" departSpeed="0.00" departDelay="0.00" arrival="87.00" arrivalLane="A2e_0" arrivalPos="189.60" arrivalSpeed="11.39" duration="68.00" routeLength="394.90" waitingTime="14.00" waitingCount="1" stopTime="0.00" timeLoss="33.79" rerouteNo="0" devices="tripinfo_car_5" vType="typeCar" speedFactor="0.83" vaporized=""/>
    <tripinfo id="car_13" depart="36.00" departLane="e2A_0" departPos="5.10" departSpeed="0.00" departDelay="2.00" arrival="87.00" arrivalLane="A2w_0" arrivalPos="189.60" arrivalSpeed="15.40" duration="51.00" routeLength="394.90" waitingTime="0.00" waitingCount="0" stopTime="0.00" timeLoss="25.41" rerouteNo="0" devices="tripinfo_car_13" vType="typeCar" speedFactor="1.12" vaporized=""/>
    <tripinfo id="car_11" depart="34.00" departLane="w2A_0" departPos="5.10" departSpeed="0.00" departDelay="1.00" arrival="88.00" arrivalLane="A2e_1" arrivalPos="189.60" arrivalSpeed="14.04" duration="54.00" routeLength="394.90" waitingTime="0.00" waitingCount="0" stopTime="0.00" timeLoss="25.97" rerouteNo="0" devices="tripinfo_car_11" vType="typeCar" speedFactor="1.03" vaporized=""/>
    <tripinfo id="car_15" depart="41.00" departLane="e2A_0" departPos="5.10" departSpeed="0.00" departDelay="0.00" arrival="88.00" arrivalLane="A2w_1" arrivalPos="189.60" arrivalSpeed="12.53" duration="47.00" routeLength="394.90" waitingTime="0.00" waitingCount="0" stopTime="0.00" timeLoss="15.56" rerouteNo="0" devices="tripinfo_car_15" vType="typeCar" speedFactor="0.93" vaporized=""/>
    <tripinfo id="car_8" depart="29.00" departLane="w2A_0" departPos="5.10" departSpeed="0.00" departDelay="0.00" arrival="89.00" arrivalLane="A2e_0" arrivalPos="189.60" arrivalSpeed="12.77" duration="60.00" routeLength="394.90" waitingTime="6.00" waitingCount="1" stopTime="0.00" timeLoss="29.36" rerouteNo="0" devices="tripinfo_car_8" vType="typeCar" speedFactor="0.94" vaporized=""/>
    <tripinfo id="car_17" depart="47.00" departLane="e2A_0" departPos="5.10" departSpeed="0.00" departDelay="3.00" arrival="89.00" arrivalLane="A2w_0" arrivalPos="189.60" arrivalSpeed="12.84" duration="42.00" routeLength="394.90" waitingTime="0.00" waitingCount="0" stopTime="0.00" timeLoss="11.80" rerouteNo="0" devices="tripinfo_car_17" vType="typeCar" speedFactor="0.94" vaporized=""/>
    <tripinfo id="car_14" depart="41.00" departLane="w2A_0" departPos="5.10" departSpeed="0.00" departDelay="0.00" arrival="90.00" arrivalLane="A2e_1" arrivalPos="189.60" arrivalSpeed="13.61" duration="49.00" routeLength="394.90" waitingTime="0.00" waitingCount="0" stopTime="0.00" timeLoss="19.73" rerouteNo="0" devices="tripinfo_car_14" vType="typeCar" speedFactor="0.99" vaporized=""/>
    <tripinfo id="car_16" depart="46.00" departLane="w2A_0" departPos="5.10" departSpeed="0.00" departDelay="4.00" arrival="91.00" arrivalLane="A2e_0" arrivalPos="189.60" arrivalSpeed="11.92" duration="45.00" routeLength="394.90" waitingTime="0.00" waitingCount="0" stopTime="0.00" timeLoss="12.29" rerouteNo="0" devices="tripinfo_car_16" vType="typeCar" speedFactor="0.88" vaporized=""/>
    <tripinfo id="car_18" depart="52.00" departLane="e2A_0" departPos="5.10" departSpeed="0.00" departDelay="5.00" arrival="94.00" arrivalLane="A2w_0" arrivalPos="189.60" arrivalSpeed="12.87" duration="42.00" routeLength="394.90" waitingTime="0.00" waitingCount="0" stopTime="0.00" timeLoss="11.58" rerouteNo="0" devices="tripinfo_car_18" vType="typeCar" speedFactor="0.94" vaporized=""/>
    <tripinfo id="car_19" depart="55.00" departLane="n2A_0" departPos="5.10" departSpeed="0.00" departDelay="0.00" arrival="95.00" arrivalLane="A2s_1" arrivalPos="189.60" arrivalSpeed="15.88" duration="40.00" routeLength="394.90" waitingTime="0.00" waitingCount="0" stopTime="0.00" timeLoss="14.78" rerouteNo="0" devices="tripinfo_car_19" vType="typeCar" speedFactor="1.16" vaporized=""/>
    <tripinfo id="car_21" depart="59.00" departLane="s2A_0" departPos="5.10" departSpeed="0.00" departDelay="0.00" arrival="99.00" arrivalLane="A2n_0" arrivalPos="189.60" arrivalSpeed="13.84" duration="40.00" routeLength="394.90" waitingTime="0.00" waitingCount="0" stopTime="0.00" timeLoss="11.02" rerouteNo="0" devices="tripinfo_car_21" vType="typeCar" speedFactor="1.01" vaporized=""/>
    <tripinfo id="car_20" depart="60.00" departLane="n2A_0" departPos="5.10" departSpeed="0.00" departDelay="2.00" arrival="100.00" arrivalLane="A2s_1" arrivalPos="189.60" arrivalSpeed="13.95" duration="40.00" routeLength="394.90" waitingTime="0.00" waitingCount="0" stopTime="0.00" timeLoss="11.65" rerouteNo="0" devices="tripinfo_car_20" vType="typeCar" speedFactor="1.02" vaporized=""/>
    <tripinfo id="car_12" depart="39.00" departLane="n2A_0" departPos="5.10" departSpeed="0.00" departDelay="5.00" arrival="106.00" arrivalLane="A2s_0" arrivalPos="189.60" arrivalSpeed="14.34" duration="67.00" routeLength="394.90" waitingTime="14.00" waitingCount="1" stopTime="0.00" timeLoss="39.03" rerouteNo="0" devices="tripinfo_car_12" vType="typeCar" speedFactor="1.05" vaporized=""/>
    <tripinfo id="car_24" depart="67.00" departLane="w2A_0" departPos="5.10" departSpeed="0.00" departDelay="0.00" arrival="111.00" arrivalLane="A2e_0" arrivalPos="189.60" arrivalSpeed="11.28" duration="44.00" routeLength="394.90" waitingTime="0.00" waitingCount="0" stopTime="0.00" timeLoss="9.02" rerouteNo="0" devices="tripinfo_car_24" vType="typeCar" speedFactor="0.83" vaporized=""/>
    <tripinfo id="car_26" depart="70.00" departLane="e2A_0" departPos="5.10" departSpeed="0.00" departDelay="0.00" arrival="112.00" arrivalLane="A2w_0" arrivalPos="189.60" arrivalSpeed="12.64" duration="42.00" routeLength="394.90" waitingTime="0.00" waitingCount="0" stopTime="0.00" timeLoss="10.71" rerouteNo="0" devices="tripinfo_car_26" vType="typeCar" speedFactor="0.92" vaporized=""/>
    <tripinfo id="car_25" depart="72.00" departLane="w2A_0" departPos="5.10" departSpeed="0.00" departDelay="2.00" arrival="115.00" arrivalLane="A2e_0" arrivalPos="189.60" arrivalSpeed="11.98" duration="43.00" routeLength="394.90" waitingTime="0.00" waitingCount="0" stopTime="0.00" timeLoss="9.50" rerouteNo="0" devices="tripinfo_car_25" vType="typeCar" speedFactor="0.87" vaporized=""/>
    <tripinfo id="car_22" depart="65.00" departLane="n2A_0" departPos="5.10" departSpeed="0.00" departDelay="4.00" arrival="126.00" arrivalLane="A2s_0" arrivalPos="189.60" arrivalSpeed="13.44" duration="61.00" routeLength="394.90" waitingTime="7.00" waitingCount="1" stopTime="0.00" timeLoss="30.86" rerouteNo="0" devices="tripinfo_car_22" vType="typeCar" speedFactor="0.98" vaporized=""/>
    <tripinfo id="car_23" depart="70.00" departLane="n2A_0" departPos="5.10" departSpeed="0.00" departDelay="7.00" arrival="127.00" arrivalLane="A2s_1" arrivalPos="189.60" arrivalSpeed="12.17" duration="57.00" routeLength="394.90" waitingTime="2.00" waitingCount="1" stopTime="0.00" timeLoss="24.07" rerouteNo="0" devices="tripinfo_car_23" vType="typeCar" speedFactor="0.89" vaporized=""/>
    <tripinfo id="car_28" depart="75.00" departLane="n2A_0" departPos="5.10" departSpeed="0.00" departDelay="1.00" arrival="127.00" arrivalLane="A2s_0" arrivalPos="189.60" arrivalSpeed="14.04" duration="52.00" routeLength="394.90" waitingTime="0.00" waitingCount="0" stopTime="0.00" timeLoss="26.59" rerouteNo="0" devices="tripinfo_car_28" vType="typeCar" speedFactor="1.13" vaporized=""/>
    <tripinfo id="car_30" depart="82.00" departLane="w2A_0" departPos="5.10" departSpeed="0.00" departDelay="7.00" arrival="135.00" arrivalLane="A2e_1" arrivalPos="189.60" arrivalSpeed="16.03" duration="53.00" routeLength="394.90" waitingTime="2.00" waitingCount="1" stopTime="0.00" timeLoss="28.44" rerouteNo="0" devices="tripinfo_car_30" vType="typeCar" speedFactor="1.18" vaporized=""/>
    <tripinfo id="car_31" depart="80.00" departLane="e2A_0" departPos="5.10" departSpeed="0.00" departDelay="3.00" arrival="135.00" arrivalLane="A2w_1" arrivalPos="189.60" arrivalSpeed="16.00" duration="55.00" routeLength="394.90" waitingTime="3.00" waitingCount="1" stopTime="0.00" timeLoss="29.84" rerouteNo="0" devices="tripinfo_car_31" vType="typeCar" speedFactor="1.15" vaporized=""/>
    <tripinfo id="car_27" depart="77.00" departLane="w2A_0" departPos="5.10" departSpeed="0.00" departDelay="5.00" arrival="136.00" arrivalLane="A2e_0" arrivalPos="189.60" arrivalSpeed="13.12" duration="59.00" routeLength="394.90" waitingTime="4.00" waitingCount="1" stopTime="0.00" timeLoss="28.77" rerouteNo="0" devices="tripinfo_car_27" vType="typeCar" speedFactor="0.95" vaporized=""/>
    <tripinfo id="car_29" depart="75.00" departLane="e2A_0" departPos="5.10" departSpeed="0.00" departDelay="1.00" arrival="137.00" arrivalLane="A2w_0" arrivalPos="189.60" arrivalSpeed="12.76" duration="62.00" routeLength="394.90" waitingTime="10.00" waitingCount="1" stopTime="0.00" timeLoss="30.68" rerouteNo="0" devices="tripinfo_car_29" vType="typeCar" speedFactor="0.93" vaporized=""/>
    <tripinfo id="car_33" depart="92.00" departLane="w2A_0" departPos="5.10" departSpeed="0.00" departDelay="7.00" arrival="137.00" arrivalLane="A2e_1" arrivalPos="189.60" arrivalSpeed="16.10" duration="45.00" routeLength="394.90" waitingTime="0.00" waitingCount="0" stopTime="0.00" timeLoss="20.15" rerouteNo="0" devices="tripinfo_car_33" vType="typeCar" speedFactor="1.17" vaporized=""/>
    <tripinfo id="car_32" depart="87.00" departLane="w2A_0" departPos="5.10" departSpeed="0.00" departDelay="8.00" arrival="138.00" arrivalLane="A2e_0" arrivalPos="189.60" arrivalSpeed="13.67" duration="51.00" routeLength="394.90" waitingTime="0.00" waitingCount="0" stopTime="0.00" timeLoss="22.27" rerouteNo="0" devices="tripinfo_car_32" vType="typeCar" speedFactor="1.01" vaporized=""/>
    <tripinfo id="car_34" depart="86.00" departLane="e2A_0" departPos="5.10" departSpeed="0.00" departDelay="0.00" arrival="139.00" arrivalLane="A2w_0" arrivalPos="189.60" arrivalSpeed="13.46" duration="53.00" routeLength="394.90" waitingTime="0.00" waitingCount="0" stopTime="0.00" timeLoss="23.49" rerouteNo="0" devices="tripinfo_car_34" vType="typeCar" speedFactor="0.99" vaporized=""/>
    <tripinfo id="car_35" depart="97.00" departLane="w2A_0" departPos="5.10" departSpeed="0.00" departDelay="10.00" arrival="139.00" arrivalLane="A2e_1" arrivalPos="189.60" arrivalSpeed="13.87" duration="42.00" routeLength="394.90" waitingTime="0.00" waitingCount="0" stopTime="0.00" timeLoss="13.39" rerouteNo="0" devices="tripinfo_car_35" vType="typeCar" speedFactor="1.02" vaporized=""/>
    <tripinfo id="car_38" depart="105.00" departLane="n2A_0" departPos="5.10" departSpeed="0.00" departDelay="3.00" arrival="145.00" arrivalLane="A2s_1" arrivalPos="189.60" arrivalSpeed="14.94" duration="40.00" routeLength="394.90" waitingTime="0.00" waitingCount="0" stopTime="0.00" timeLoss="13.77" rerouteNo="0" devices="tripinfo_car_38" vType="typeCar" speedFactor="1.10" vaporized=""/>
    <tripinfo id="car_37" depart="100.00" departLane="n2A_0" departPos="5.10" departSpeed="0.00" departDelay="0.00" arrival="155.00" arrivalLane="A2s_0" arrivalPos="189.60" arrivalSpeed="16.37" duration="55.00" routeLength="394.90" waitingTime="2.00" waitingCount="1" stopTime="0.00" timeLoss="29.95" rerouteNo="0" devices="tripinfo_car_37" vType="typeCar" speedFactor="1.18" vaporized=""/>
    <tripinfo id="car_36" depart="95.00" departLane="s2A_0" departPos="5.10" departSpeed="0.00" departDelay="0.00" arrival="156.00" arrivalLane="A2n_0" arrivalPos="189.60" arrivalSpeed="13.43" duration="61.00" routeLength="394.90" waitingTime="9.00" waitingCount="1" stopTime="0.00" timeLoss="30.88" rerouteNo="0" devices="tripinfo_car_36" vType="typeCar" speedFactor="0.97" vaporized=""/>
    <tripinfo id="car_39" depart="113.00" departLane="e2A_0" departPos="5.10" departSpeed="0.00" departDelay="0.00" arrival="160.00" arrivalLane="A2w_0" arrivalPos="189.60" arrivalSpeed="12.19" duration="47.00" routeLength="394.90" waitingTime="0.00" waitingCount="0" stopTime="0.00" timeLoss="15.23" rerouteNo="0" devices="tripinfo_car_39" vType="typeCar" speedFactor="0.90" vaporized=""/>
    <tripinfo id="car_44" depart="133.00" departLane="e2A_0" departPos="5.10" departSpeed="0.00" departDelay="1.00" arrival="178.00" arrivalLane="A2w_1" arrivalPos="189.60" arrivalSpeed="14.43" duration="45.00" routeLength="394.90" waitingTime="0.00" waitingCount="0" stopTime="0.00" timeLoss="17.11" rerouteNo="0" devices="tripinfo_car_44" vType="typeCar" speedFactor="1.04" vaporized=""/>
    <tripinfo id="car_42" depart="133.00" departLane="w2A_0" departPos="5.10" departSpeed="0.00" departDelay="4.00" arrival="180.00" arrivalLane="A2e_1" arrivalPos="189.60" arrivalSpeed="15.14" duration="47.00" routeLength="394.90" waitingTime="0.00" waitingCount="0" stopTime="0.00" timeLoss="20.70" rerouteNo="0" devices="tripinfo_car_42" vType="typeCar" speedFactor="1.09" vaporized=""/>
    <tripinfo id="car_47" depart="139.00" departLane="e2A_0" departPos="5.10" departSpeed="0.00" departDelay="3.00" arrival="181.00" arrivalLane="A2w_1" arrivalPos="189.60" arrivalSpeed="12.16" duration="42.00" routeLength="394.90" waitingTime="0.00" waitingCount="0" stopTime="0.00" timeLoss="10.30" rerouteNo="0" devices="tripinfo_car_47" vType="typeCar" speedFactor="0.90" vaporized=""/>
    <tripinfo id="car_43" depart="138.00" departLane="w2A_0" departPos="5.10" departSpeed="0.00" departDelay="7.00" arrival="182.00" arrivalLane="A2e_1" arrivalPos="189.60" arrivalSpeed="14.20" duration="44.00" routeLength="394.90" waitingTime="0.00" waitingCount="0" stopTime="0.00" timeLoss="16.13" rerouteNo="0" devices="tripinfo_car_43" vType="typeCar" speedFactor="1.04" vaporized=""/>
    <tripinfo id="car_45" depart="143.00" departLane="w2A_0" departPos="5.10" departSpeed="0.00" departDelay="10.00" arrival="184.00" arrivalLane="A2e_1" arrivalPos="189.60" arrivalSpeed="15.10" duration="41.00" routeLength="394.90" waitingTime="0.00" waitingCount="0" stopTime="0.00" timeLoss="13.94" rerouteNo="0" devices="tripinfo_car_45" vType="typeCar" speedFactor="1.09" vaporized=""/>
    <tripinfo id="car_40" depart="128.00" departLane="w2A_0" departPos="5.10" departSpeed="0.00" departDelay="0.00" arrival="186.00" arrivalLane="A2e_0" arrivalPos="189.60" arrivalSpeed="14.11" duration="58.00" routeLength="394.90" waitingTime="5.00" waitingCount="1" stopTime="0.00" timeLoss="29.79" rerouteNo="0" devices="tripinfo_car_40" vType="typeCar" speedFactor="1.03" vaporized=""/>
    <tripinfo id="car_51" depart="144.00" departLane="e2A_0" departPos="5.10" departSpeed="0.00" departDelay="0.00" arrival="186.00" arrivalLane="A2w_1" arrivalPos="189.60" arrivalSpeed="16.19" duration="42.00" routeLength="394.90" waitingTime="0.00" waitingCount="0" stopTime="0.00" timeLoss="16.71" rerouteNo="0" devices="tripinfo_car_51" vType="typeCar" speedFactor="1.17" vaporized=""/>
    <tripinfo id="car_41" depart="128.00" departLane="e2A_0" departPos="5.10" departSpeed="0.00" departDelay="0.00" arrival="187.00" arrivalLane="A2w_0" arrivalPos="189.60" arrivalSpeed="13.16" duration="59.00" routeLength="394.90" waitingTime="5.00" waitingCount="1" stopTime="0.00" timeLoss="28.43" rerouteNo="0" devices="tripinfo_car_41" vType="typeCar" speedFactor="0.96" vaporized=""/>
    <tripinfo id="car_46" depart="148.00" departLane="w2A_0" departPos="5.10" departSpeed="0.00" departDelay="13.00" arrival="188.00" arrivalLane="A2e_0" arrivalPos="189.60" arrivalSpeed="13.51" duration="40.00" routeLength="394.90" waitingTime="0.00" waitingCount="0" stopTime="0.00" timeLoss="11.34" rerouteNo="0" devices="tripinfo_car_46" vType="typeCar" speedFactor="1.00" vaporized=""/>
    <tripinfo id="car_56" depart="152.00" departLane="e2A_0" departPos="5.10" departSpeed="0.00" departDelay="0.00" arrival="194.00" arrivalLane="A2w_0" arrivalPos="189.60" arrivalSpeed="12.47" duration="42.00" routeLength="394.90" waitingTime="0.00" waitingCount="0" stopTime="0.00" timeLoss="10.27" rerouteNo="0" devices="tripinfo_car_56" vType="typeCar" speedFactor="0.90" vaporized=""/>
    <tripinfo id="car_48" depart="153.00" departLane="w2A_0" departPos="5.10" departSpeed="0.00" departDelay="13.00" arrival="196.00" arrivalLane="A2e_0" arrivalPos="189.60" arrivalSpeed="11.93" duration="43.00" routeLength="394.90" waitingTime="0.00" waitingCount="0" stopTime="0.00" timeLoss="9.78" rerouteNo="0" devices="tripinfo_car_48" vType="typeCar" speedFactor="0.88" vaporized=""/>
    <tripinfo id="car_57" depart="153.00" departLane="s2A_0" departPos="5.10" departSpeed="0.00" departDelay="0.00" arrival="201.00" arrivalLane="A2n_1" arrivalPos="189.60" arrivalSpeed="15.57" duration="48.00" routeLength="394.90" waitingTime="0.00" waitingCount="0" stopTime="0.00" timeLoss="22.86" rerouteNo="0" devices="tripinfo_car_57" vType="typeCar" speedFactor="1.14" vaporized=""/>
    <tripinfo id="car_53" depart="152.00" departLane="n2A_0" departPos="5.10" departSpeed="0.00" departDelay="4.00" arrival="205.00" arrivalLane="A2s_1" arrivalPos="189.60" arrivalSpeed="14.83" duration="53.00" routeLength="394.90" waitingTime="0.00" waitingCount="0" stopTime="0.00" timeLoss="26.62" rerouteNo="0" devices="tripinfo_car_53" vType="typeCar" speedFactor="1.10" vaporized=""/>
    <tripinfo id="car_52" depart="147.00" departLane="n2A_0" departPos="5.10" departSpeed="0.00" departDelay="0.00" arrival="206.00" arrivalLane="A2s_0" arrivalPos="189.60" arrivalSpeed="14.01" duration="59.00" routeLength="394.90" waitingTime="5.00" waitingCount="1" stopTime="0.00" timeLoss="30.68" rerouteNo="0" devices="tripinfo_car_52" vType="typeCar" speedFactor="1.02" vaporized=""/>
    <tripinfo id="car_61" depart="162.00" departLane="n2A_0" departPos="5.10" departSpeed="0.00" departDelay="0.00" arrival="207.00" arrivalLane="A2s_1" arrivalPos="189.60" arrivalSpeed="15.38" duration="45.00" routeLength="394.90" waitingTime="0.00" waitingCount="0" stopTime="0.00" timeLoss="18.71" rerouteNo="0" devices="tripinfo_car_61" vType="typeCar" speedFactor="1.12" vaporized=""/>
    <tripinfo id="car_50" depart="144.00" departLane="s2A_0" departPos="5.10" departSpeed="0.00" departDelay="0.00" arrival="207.00" arrivalLane="A2n_0" arrivalPos="189.60" arrivalSpeed="11.60" duration="63.00" routeLength="394.90" waitingTime="9.00" waitingCount="1" stopTime="0.00" timeLoss="29.14" rerouteNo="0" devices="tripinfo_car_50" vType="typeCar" speedFactor="0.85" vaporized=""/>
    <tripinfo id="car_60" depart="163.00" departLane="e2A_0" departPos="5.10" departSpeed="0.00" departDelay="2.00" arrival="208.00" arrivalLane="A2w_1" arrivalPos="189.60" arrivalSpeed="14.82" duration="45.00" routeLength="394.90" waitingTime="0.00" waitingCount="0" stopTime="0.00" timeLoss="17.79" rerouteNo="0" devices="tripinfo_car_60" vType="typeCar" speedFactor="1.08" vaporized=""/>
    <tripinfo id="car_62" depart="168.00" departLane="e2A_0" departPos="5.10" departSpeed="0.00" departDelay="6.00" arrival="210.00" arrivalLane="A2w_1" arrivalPos="189.60" arrivalSpeed="13.74" duration="42.00" routeLength="394.90" waitingTime="0.00" waitingCount="0" stopTime="0.00" timeLoss="13.11" rerouteNo="0" devices="tripinfo_car_62" vType="typeCar" speedFactor="1.02" vaporized=""/>
    <tripinfo id="car_54" depart="163.00" departLane="w2A_0" departPos="5.10" departSpeed="0.00" departDelay="13.00" arrival="210.00" arrivalLane="A2e_1" arrivalPos="189.60" arrivalSpeed="13.80" duration="47.00" routeLength="394.90" waitingTime="0.00" waitingCount="0" stopTime="0.00" timeLoss="18.06" rerouteNo="0" devices="tripinfo_car_54" vType="typeCar" speedFactor="1.00" vaporized=""/>
    <tripinfo id="car_55" depart="169.00" departLane="w2A_0" departPos="5.10" departSpeed="0.00" departDelay="17.00" arrival="212.00" arrivalLane="A2e_1" arrivalPos="189.60" arrivalSpeed="13.63" duration="43.00" routeLength="394.90" waitingTime="0.00" waitingCount="0" stopTime="0.00" timeLoss="13.55" rerouteNo="0" devices="tripinfo_car_55" vType="typeCar" speedFactor="1.00" vaporized=""/>
    <tripinfo id="car_58" depart="158.00" departLane="e2A_0" departPos="5.10" departSpeed="0.00" departDelay="0.00" arrival="216.00" arrivalLane="A2w_0" arrivalPos="189.60" arrivalSpeed="13.88" duration="58.00" routeLength="394.90" waitingTime="4.00" waitingCount="1" stopTime="0.00" timeLoss="29.43" rerouteNo="0" devices="tripinfo_car_58" vType="typeCar" speedFactor="1.02" vaporized=""/>
    <tripinfo id="car_64" depart="173.00" departLane="e2A_0" departPos="5.10" departSpeed="0.00" departDelay="6.00" arrival="216.00" arrivalLane="A2w_1" arrivalPos="189.60" arrivalSpeed="12.72" duration="43.00" routeLength="394.90" waitingTime="0.00" waitingCount="0" stopTime="0.00" timeLoss="12.14" rerouteNo="0" devices="tripinfo_car_64" vType="typeCar" speedFactor="0.94" vaporized=""/>
    <tripinfo id="car_59" depart="174.00" departLane="w2A_0" departPos="5.10" departSpeed="0.00" departDelay="13.00" arrival="216.00" arrivalLane="A2e_1" arrivalPos="189.60" arrivalSpeed="13.17" duration="42.00" routeLength="394.90" waitingTime="0.00" waitingCount="0" stopTime="0.00" timeLoss="12.20" rerouteNo="0" devices="tripinfo_car_59" vType="typeCar" speedFactor="0.97" vaporized=""/>
    <tripinfo id="car_49" depart="158.00" departLane="w2A_0" departPos="5.10" departSpeed="0.00" departDelay="16.00" arrival="217.00" arrivalLane="A2e_0" arrivalPos="189.60" arrivalSpeed="11.47" duration="59.00" routeLength="394.90" waitingTime="6.00" waitingCount="1" stopTime="0.00" timeLoss="25.52" rerouteNo="0" devices="tripinfo_car_49" vType="typeCar" speedFactor="0.85" vaporized=""/>
    <tripinfo id="car_63" depart="179.00" departLane="w2A_0" departPos="5.10" departSpeed="0.00" departDelay="13.00" arrival="220.00" arrivalLane="A2e_0" arrivalPos="189.60" arrivalSpeed="13.55" duration="41.00" routeLength="394.90" waitingTime="0.00" waitingCount="0" stopTime="0.00" timeLoss="11.54" rerouteNo="0" devices="tripinfo_car_63" vType="typeCar" speedFactor="0.99" vaporized=""/>
    <tripinfo id="car_66" depart="178.00" departLane="e2A_0" departPos="5.10" departSpeed="0.00" departDelay="8.00" arrival="221.00" arrivalLane="A2w_0" arrivalPos="189.60" arrivalSpeed="12.32" duration="43.00" routeLength="394.90" waitingTime="0.00" waitingCount="0" stopTime="0.00" timeLoss="10.84" rerouteNo="0" devices="tripinfo_car_66" vType="typeCar" speedFactor="0.91" vaporized=""/>
    <tripinfo id="car_68" depart="183.00" departLane="e2A_0" departPos="5.10" departSpeed="0.00" departDelay="8.00" arrival="223.00" arrivalLane="A2w_0" arrivalPos="189.60" arrivalSpeed="14.20" duration="40.00" routeLength="394.90" waitingTime="0.00" waitingCount="0" stopTime="0.00" timeLoss="12.60" rerouteNo="0" devices="tripinfo_car_68" vType="typeCar" speedFactor="1.04" vaporized=""/>
    <tripinfo id="car_72" depart="184.00" departLane="w2A_0" departPos="5.10" departSpeed="0.00" departDelay="1.00" arrival="226.00" arrivalLane="A2e_0" arrivalPos="189.60" arrivalSpeed="12.73" duration="42.00" routeLength="394.90" waitingTime="0.00" waitingCount="0" stopTime="0.00" timeLoss="10.82" rerouteNo="0" devices="tripinfo_car_72" vType="typeCar" speedFactor="0.94" vaporized=""/>
</tripinfos>
