<?xml version="1.0" encoding="UTF-8"?>

<!-- generated on Thu Oct 25 11:51:03 2018 by Eclipse SUMO GUI Version 1.0.0
<configuration xmlns:xsi="http://www.w3.org/2001/XMLSchema-instance" xsi:noNamespaceSchemaLocation="http://sumo.dlr.de/xsd/sumoConfiguration.xsd">

    <input>
        <net-file value="data/CustomNet.net.xml"/>
        <route-files value="data/CustomNet.rou.xml"/>
        <additional-files value="data/CustomNetAdditionals2.xml"/>
    </input>

    <output>
        <tripinfo-output value="tripinfo.xml"/>
    </output>

    <processing>
        <time-to-teleport value="-1"/>
    </processing>

    <traci_server>
        <remote-port value="49492"/>
    </traci_server>

</configuration>
-->

<tripinfos xmlns:xsi="http://www.w3.org/2001/XMLSchema-instance" xsi:noNamespaceSchemaLocation="http://sumo.dlr.de/xsd/tripinfo_file.xsd">
    <tripinfo id="veh65" depart="10.00" departLane="gneE64_0" departPos="5.10" departSpeed="0.00" departDelay="10.00" arrival="69.00" arrivalLane="gneE6_0" arrivalPos="192.80" arrivalSpeed="15.52" duration="59.00" routeLength="386.33" waitingTime="4.00" waitingCount="1" stopTime="0.00" timeLoss="34.37" rerouteNo="0" devices="tripinfo_veh65" vType="CarA" speedFactor="0.88" vaporized=""/>
    <tripinfo id="veh172" depart="15.00" departLane="gneE7_0" departPos="5.10" departSpeed="0.00" departDelay="15.00" arrival="71.00" arrivalLane="gneE57_0" arrivalPos="92.80" arrivalSpeed="16.60" duration="56.00" routeLength="383.56" waitingTime="2.00" waitingCount="1" stopTime="0.00" timeLoss="31.39" rerouteNo="0" devices="tripinfo_veh172" vType="CarA" speedFactor="0.89" vaporized=""/>
    <tripinfo id="veh91" depart="16.00" departLane="gneE16_0" departPos="5.10" departSpeed="0.00" departDelay="16.00" arrival="75.00" arrivalLane="gneE63_0" arrivalPos="92.80" arrivalSpeed="16.14" duration="59.00" routeLength="394.15" waitingTime="8.00" waitingCount="1" stopTime="0.00" timeLoss="33.62" rerouteNo="0" devices="tripinfo_veh91" vType="CarA" speedFactor="0.89" vaporized=""/>
    <tripinfo id="veh174" depart="25.00" departLane="gneE7_0" departPos="5.10" departSpeed="0.00" departDelay="25.00" arrival="93.00" arrivalLane="gneE60_0" arrivalPos="96.80" arrivalSpeed="12.43" duration="68.00" routeLength="475.90" waitingTime="0.00" waitingCount="0" stopTime="0.00" timeLoss="36.53" rerouteNo="0" devices="tripinfo_veh174" vType="CarA" speedFactor="0.96" vaporized=""/>
    <tripinfo id="veh8" depart="0.00" departLane="gneE48_0" departPos="5.10" departSpeed="0.00" departDelay="0.00" arrival="95.00" arrivalLane="gneE2_0" arrivalPos="405.29" arrivalSpeed="16.64" duration="95.00" routeLength="1056.37" waitingTime="0.00" waitingCount="0" stopTime="0.00" timeLoss="28.74" rerouteNo="0" devices="tripinfo_veh8" vType="CarA" speedFactor="0.94" vaporized=""/>
    <tripinfo id="veh108" depart="10.00" departLane="gneE48_0" departPos="5.10" departSpeed="0.00" departDelay="10.00" arrival="96.00" arrivalLane="gneE21_0" arrivalPos="189.60" arrivalSpeed="16.10" duration="86.00" routeLength="594.31" waitingTime="5.00" waitingCount="2" stopTime="0.00" timeLoss="48.85" rerouteNo="0" devices="tripinfo_veh108" vType="CarA" speedFactor="1.06" vaporized=""/>
    <tripinfo id="veh92" depart="21.00" departLane="gneE16_0" departPos="5.10" departSpeed="0.00" departDelay="21.00" arrival="96.00" arrivalLane="gneE66_0" arrivalPos="96.80" arrivalSpeed="11.61" duration="75.00" routeLength="490.12" waitingTime="3.00" waitingCount="1" stopTime="0.00" timeLoss="41.95" rerouteNo="0" devices="tripinfo_veh92" vType="CarA" speedFactor="0.83" vaporized=""/>
    <tripinfo id="veh175" depart="30.00" departLane="gneE7_0" departPos="5.10" departSpeed="0.00" departDelay="30.00" arrival="97.00" arrivalLane="gneE47_0" arrivalPos="92.80" arrivalSpeed="16.05" duration="67.00" routeLength="586.49" waitingTime="0.00" waitingCount="0" stopTime="0.00" timeLoss="30.49" rerouteNo="0" devices="tripinfo_veh175" vType="CarA" speedFactor="0.92" vaporized=""/>
    <tripinfo id="veh93" depart="26.00" departLane="gneE16_0" departPos="5.10" departSpeed="0.00" departDelay="26.00" arrival="100.00" arrivalLane="gneE70_0" arrivalPos="96.80" arrivalSpeed="11.59" duration="74.00" routeLength="490.12" waitingTime="0.00" waitingCount="0" stopTime="0.00" timeLoss="41.83" rerouteNo="0" devices="tripinfo_veh93" vType="CarA" speedFactor="0.92" vaporized=""/>
    <tripinfo id="veh0" depart="0.00" departLane="gneE0_0" departPos="5.10" departSpeed="0.00" departDelay="0.00" arrival="110.00" arrivalLane="gneE2_0" arrivalPos="405.29" arrivalSpeed="16.66" duration="110.00" routeLength="1594.89" waitingTime="0.00" waitingCount="0" stopTime="0.00" timeLoss="14.37" rerouteNo="0" devices="tripinfo_veh0" vType="CarA" speedFactor="1.06" vaporized=""/>
    <tripinfo id="veh107" depart="5.00" departLane="gneE48_0" departPos="5.10" departSpeed="0.00" departDelay="5.00" arrival="113.00" arrivalLane="gneE2_0" arrivalPos="405.29" arrivalSpeed="16.51" duration="108.00" routeLength="1056.37" waitingTime="8.00" waitingCount="1" stopTime="0.00" timeLoss="42.52" rerouteNo="0" devices="tripinfo_veh107" vType="CarA" speedFactor="1.03" vaporized=""/>
    <tripinfo id="veh17" depart="5.00" departLane="gneE0_0" departPos="5.10" departSpeed="0.00" departDelay="5.00" arrival="115.00" arrivalLane="gneE2_0" arrivalPos="405.29" arrivalSpeed="16.47" duration="110.00" routeLength="1594.89" waitingTime="0.00" waitingCount="0" stopTime="0.00" timeLoss="14.35" rerouteNo="0" devices="tripinfo_veh17" vType="CarA" speedFactor="0.94" vaporized=""/>
    <tripinfo id="veh173" depart="20.00" departLane="gneE7_0" departPos="5.10" departSpeed="0.00" departDelay="20.00" arrival="115.00" arrivalLane="gneE54_0" arrivalPos="96.80" arrivalSpeed="11.63" duration="95.00" routeLength="478.56" waitingTime="17.00" waitingCount="1" stopTime="0.00" timeLoss="63.52" rerouteNo="0" devices="tripinfo_veh173" vType="CarA" speedFactor="1.14" vaporized=""/>
    <tripinfo id="veh109" depart="15.00" departLane="gneE48_0" departPos="5.10" departSpeed="0.00" departDelay="15.00" arrival="115.00" arrivalLane="gneE57_0" arrivalPos="92.80" arrivalSpeed="15.70" duration="100.00" routeLength="595.77" waitingTime="21.00" waitingCount="2" stopTime="0.00" timeLoss="62.56" rerouteNo="0" devices="tripinfo_veh109" vType="CarA" speedFactor="0.96" vaporized=""/>
    <tripinfo id="veh83" depart="10.00" departLane="gneE71_0" departPos="5.10" departSpeed="0.00" departDelay="10.00" arrival="118.00" arrivalLane="gneE6_0" arrivalPos="192.80" arrivalSpeed="16.35" duration="108.00" routeLength="482.30" waitingTime="29.00" waitingCount="2" stopTime="0.00" timeLoss="76.83" rerouteNo="0" devices="tripinfo_veh83" vType="CarA" speedFactor="0.97" vaporized=""/>
    <tripinfo id="veh20" depart="10.00" departLane="gneE0_0" departPos="5.10" departSpeed="0.00" departDelay="10.00" arrival="122.00" arrivalLane="gneE2_0" arrivalPos="405.29" arrivalSpeed="16.66" duration="112.00" routeLength="1594.89" waitingTime="0.00" waitingCount="0" stopTime="0.00" timeLoss="15.59" rerouteNo="0" devices="tripinfo_veh20" vType="CarA" speedFactor="1.02" vaporized=""/>
    <tripinfo id="veh94" depart="30.00" departLane="gneE16_0" departPos="5.10" departSpeed="0.00" departDelay="30.00" arrival="123.00" arrivalLane="gneE73_0" arrivalPos="92.80" arrivalSpeed="16.31" duration="93.00" routeLength="596.09" waitingTime="8.00" waitingCount="3" stopTime="0.00" timeLoss="55.91" rerouteNo="0" devices="tripinfo_veh94" vType="CarA" speedFactor="1.09" vaporized=""/>
    <tripinfo id="veh176" depart="35.00" departLane="gneE7_0" departPos="5.10" departSpeed="0.00" departDelay="35.00" arrival="132.00" arrivalLane="gneE50_0" arrivalPos="96.80" arrivalSpeed="11.31" duration="97.00" routeLength="682.46" waitingTime="7.00" waitingCount="1" stopTime="0.00" timeLoss="53.60" rerouteNo="0" devices="tripinfo_veh176" vType="CarA" speedFactor="1.09" vaporized=""/>
    <tripinfo id="veh95" depart="36.00" departLane="gneE16_0" departPos="5.10" departSpeed="0.00" departDelay="36.00" arrival="139.00" arrivalLane="gneE85_0" arrivalPos="96.80" arrivalSpeed="12.49" duration="103.00" routeLength="688.86" waitingTime="6.00" waitingCount="2" stopTime="0.00" timeLoss="59.44" rerouteNo="0" devices="tripinfo_veh95" vType="CarA" speedFactor="1.06" vaporized=""/>
    <tripinfo id="veh116" depart="50.00" departLane="gneE48_0" departPos="5.10" departSpeed="0.00" departDelay="50.00" arrival="143.00" arrivalLane="gneE43_0" arrivalPos="89.60" arrivalSpeed="14.16" duration="93.00" routeLength="682.38" waitingTime="7.00" waitingCount="1" stopTime="0.00" timeLoss="49.83" rerouteNo="0" devices="tripinfo_veh116" vType="CarA" speedFactor="1.18" vaporized=""/>
    <tripinfo id="veh74" depart="10.00" departLane="gneE67_0" departPos="5.10" departSpeed="0.00" departDelay="10.00" arrival="158.00" arrivalLane="gneE6_0" arrivalPos="192.80" arrivalSpeed="16.06" duration="148.00" routeLength="482.30" waitingTime="66.00" waitingCount="3" stopTime="0.00" timeLoss="117.33" rerouteNo="0" devices="tripinfo_veh74" vType="CarA" speedFactor="0.96" vaporized=""/>
    <tripinfo id="veh26" depart="31.00" departLane="gneE0_0" departPos="5.10" departSpeed="0.00" departDelay="31.00" arrival="158.00" arrivalLane="gneE73_0" arrivalPos="92.80" arrivalSpeed="15.23" duration="127.00" routeLength="1054.42" waitingTime="23.00" waitingCount="1" stopTime="0.00" timeLoss="62.27" rerouteNo="0" devices="tripinfo_veh26" vType="CarA" speedFactor="0.92" vaporized=""/>
    <tripinfo id="veh117" depart="55.00" departLane="gneE48_0" departPos="5.10" departSpeed="0.00" departDelay="55.00" arrival="159.00" arrivalLane="gneE45_0" arrivalPos="89.60" arrivalSpeed="11.22" duration="104.00" routeLength="680.94" waitingTime="11.00" waitingCount="2" stopTime="0.00" timeLoss="60.56" rerouteNo="0" devices="tripinfo_veh117" vType="CarA" speedFactor="1.00" vaporized=""/>
    <tripinfo id="veh5" depart="0.00" departLane="gneE64_0" departPos="5.10" departSpeed="0.00" departDelay="0.00" arrival="165.00" arrivalLane="gneE2_0" arrivalPos="405.29" arrivalSpeed="16.41" duration="165.00" routeLength="1657.59" waitingTime="5.00" waitingCount="2" stopTime="0.00" timeLoss="62.11" rerouteNo="0" devices="tripinfo_veh5" vType="CarA" speedFactor="0.83" vaporized=""/>
    <tripinfo id="veh1" depart="0.00" departLane="gneE16_0" departPos="5.10" departSpeed="0.00" departDelay="0.00" arrival="166.00" arrivalLane="gneE2_1" arrivalPos="405.29" arrivalSpeed="16.47" duration="166.00" routeLength="1658.34" waitingTime="3.00" waitingCount="2" stopTime="0.00" timeLoss="64.11" rerouteNo="0" devices="tripinfo_veh1" vType="CarA" speedFactor="0.94" vaporized=""/>
    <tripinfo id="veh18" depart="5.00" departLane="gneE16_0" departPos="5.10" departSpeed="0.00" departDelay="5.00" arrival="169.00" arrivalLane="gneE2_0" arrivalPos="405.29" arrivalSpeed="16.41" duration="164.00" routeLength="1658.34" waitingTime="1.00" waitingCount="1" stopTime="0.00" timeLoss="61.99" rerouteNo="0" devices="tripinfo_veh18" vType="CarA" speedFactor="0.94" vaporized=""/>
    <tripinfo id="veh27" depart="36.00" departLane="gneE0_0" departPos="5.10" departSpeed="0.00" departDelay="36.00" arrival="176.00" arrivalLane="gneE85_0" arrivalPos="96.80" arrivalSpeed="12.27" duration="140.00" routeLength="1147.19" waitingTime="22.00" waitingCount="1" stopTime="0.00" timeLoss="67.43" rerouteNo="0" devices="tripinfo_veh27" vType="CarA" speedFactor="0.95" vaporized=""/>
    <tripinfo id="veh121" depart="10.00" departLane="gneE51_0" departPos="5.10" departSpeed="0.00" departDelay="10.00" arrival="178.00" arrivalLane="gneE21_0" arrivalPos="189.60" arrivalSpeed="16.63" duration="168.00" routeLength="690.28" waitingTime="62.00" waitingCount="4" stopTime="0.00" timeLoss="124.53" rerouteNo="0" devices="tripinfo_veh121" vType="CarA" speedFactor="1.10" vaporized=""/>
    <tripinfo id="veh183" depart="71.00" departLane="gneE7_0" departPos="5.10" departSpeed="0.00" departDelay="71.00" arrival="179.00" arrivalLane="gneE43_0" arrivalPos="89.60" arrivalSpeed="14.32" duration="108.00" routeLength="496.09" waitingTime="35.00" waitingCount="1" stopTime="0.00" timeLoss="77.14" rerouteNo="0" devices="tripinfo_veh183" vType="CarA" speedFactor="1.08" vaporized=""/>
    <tripinfo id="veh25" depart="26.00" departLane="gneE0_0" departPos="5.10" departSpeed="0.00" departDelay="26.00" arrival="181.00" arrivalLane="gneE2_0" arrivalPos="405.29" arrivalSpeed="16.47" duration="155.00" routeLength="1746.26" waitingTime="5.00" waitingCount="1" stopTime="0.00" timeLoss="48.04" rerouteNo="0" devices="tripinfo_veh25" vType="CarA" speedFactor="0.87" vaporized=""/>
    <tripinfo id="veh21" depart="15.00" departLane="gneE0_0" departPos="5.10" departSpeed="0.00" departDelay="15.00" arrival="186.00" arrivalLane="gneE6_0" arrivalPos="192.80" arrivalSpeed="15.42" duration="171.00" routeLength="1266.35" waitingTime="29.00" waitingCount="3" stopTime="0.00" timeLoss="94.33" rerouteNo="0" devices="tripinfo_veh21" vType="CarA" speedFactor="1.01" vaporized=""/>
    <tripinfo id="veh122" depart="15.00" departLane="gneE51_0" departPos="5.10" departSpeed="0.00" departDelay="15.00" arrival="193.00" arrivalLane="gneE57_0" arrivalPos="92.80" arrivalSpeed="16.31" duration="178.00" routeLength="691.74" waitingTime="59.00" waitingCount="4" stopTime="0.00" timeLoss="133.15" rerouteNo="0" devices="tripinfo_veh122" vType="CarA" speedFactor="1.03" vaporized=""/>
    <tripinfo id="veh28" depart="41.00" departLane="gneE0_0" departPos="5.10" departSpeed="0.00" departDelay="41.00" arrival="193.00" arrivalLane="gneE63_0" arrivalPos="92.80" arrivalSpeed="16.23" duration="152.00" routeLength="1257.78" waitingTime="27.00" waitingCount="2" stopTime="0.00" timeLoss="75.29" rerouteNo="0" devices="tripinfo_veh28" vType="CarA" speedFactor="1.13" vaporized=""/>
    <tripinfo id="veh19" depart="5.00" departLane="gneE7_0" departPos="5.10" departSpeed="0.00" departDelay="5.00" arrival="198.00" arrivalLane="gneE2_0" arrivalPos="405.29" arrivalSpeed="16.62" duration="193.00" routeLength="1265.10" waitingTime="68.00" waitingCount="2" stopTime="0.00" timeLoss="115.64" rerouteNo="0" devices="tripinfo_veh19" vType="CarA" speedFactor="1.16" vaporized=""/>
    <tripinfo id="veh2" depart="0.00" departLane="gneE7_0" departPos="5.10" departSpeed="0.00" departDelay="0.00" arrival="200.00" arrivalLane="gneE2_0" arrivalPos="405.29" arrivalSpeed="16.70" duration="200.00" routeLength="1265.10" waitingTime="72.00" waitingCount="2" stopTime="0.00" timeLoss="123.74" rerouteNo="0" devices="tripinfo_veh2" vType="CarA" speedFactor="1.01" vaporized=""/>
    <tripinfo id="veh118" depart="60.00" departLane="gneE48_0" departPos="5.10" departSpeed="0.00" departDelay="60.00" arrival="200.00" arrivalLane="gneE39_0" arrivalPos="89.60" arrivalSpeed="16.65" duration="140.00" routeLength="870.90" waitingTime="20.00" waitingCount="2" stopTime="0.00" timeLoss="84.75" rerouteNo="0" devices="tripinfo_veh118" vType="CarA" speedFactor="0.99" vaporized=""/>
    <tripinfo id="veh9" depart="0.00" departLane="gneE51_0" departPos="5.10" departSpeed="0.00" departDelay="0.00" arrival="202.00" arrivalLane="gneE2_1" arrivalPos="405.29" arrivalSpeed="16.64" duration="202.00" routeLength="1152.34" waitingTime="63.00" waitingCount="3" stopTime="0.00" timeLoss="128.90" rerouteNo="0" devices="tripinfo_veh9" vType="CarA" speedFactor="0.86" vaporized=""/>
    <tripinfo id="veh223" depart="96.00" departLane="gneE7_0" departPos="5.10" departSpeed="0.00" departDelay="86.00" arrival="203.00" arrivalLane="gneE2_1" arrivalPos="405.29" arrivalSpeed="16.68" duration="107.00" routeLength="1265.10" waitingTime="0.00" waitingCount="0" stopTime="0.00" timeLoss="30.54" rerouteNo="0" devices="tripinfo_veh223" vType="CarA" speedFactor="1.06" vaporized=""/>
    <tripinfo id="veh24" depart="10.00" departLane="gneE7_0" departPos="5.10" departSpeed="0.00" departDelay="10.00" arrival="204.00" arrivalLane="gneE2_0" arrivalPos="405.29" arrivalSpeed="16.55" duration="194.00" routeLength="1265.10" waitingTime="63.00" waitingCount="2" stopTime="0.00" timeLoss="116.89" rerouteNo="0" devices="tripinfo_veh24" vType="CarA" speedFactor="0.83" vaporized=""/>
    <tripinfo id="veh23" depart="10.00" departLane="gneE16_0" departPos="5.10" departSpeed="0.00" departDelay="10.00" arrival="206.00" arrivalLane="gneE2_1" arrivalPos="405.29" arrivalSpeed="16.51" duration="196.00" routeLength="1658.34" waitingTime="29.00" waitingCount="2" stopTime="0.00" timeLoss="94.26" rerouteNo="0" devices="tripinfo_veh23" vType="CarA" speedFactor="0.89" vaporized=""/>
    <tripinfo id="veh120" depart="5.00" departLane="gneE51_0" departPos="5.10" departSpeed="0.00" departDelay="5.00" arrival="206.00" arrivalLane="gneE2_0" arrivalPos="405.29" arrivalSpeed="16.44" duration="201.00" routeLength="1152.34" waitingTime="59.00" waitingCount="3" stopTime="0.00" timeLoss="128.80" rerouteNo="0" devices="tripinfo_veh120" vType="CarA" speedFactor="0.94" vaporized=""/>
    <tripinfo id="veh119" depart="65.00" departLane="gneE48_0" departPos="5.10" departSpeed="0.00" departDelay="65.00" arrival="207.00" arrivalLane="gneE41_0" arrivalPos="89.60" arrivalSpeed="12.88" duration="142.00" routeLength="861.54" waitingTime="18.00" waitingCount="2" stopTime="0.00" timeLoss="86.09" rerouteNo="0" devices="tripinfo_veh119" vType="CarA" speedFactor="1.07" vaporized=""/>
    <tripinfo id="veh64" depart="5.00" departLane="gneE64_0" departPos="5.10" departSpeed="0.00" departDelay="5.00" arrival="208.00" arrivalLane="gneE2_0" arrivalPos="405.29" arrivalSpeed="16.34" duration="203.00" routeLength="1657.59" waitingTime="34.00" waitingCount="2" stopTime="0.00" timeLoss="99.55" rerouteNo="0" devices="tripinfo_veh64" vType="CarA" speedFactor="0.94" vaporized=""/>
    <tripinfo id="veh32" depart="61.00" departLane="gneE0_0" departPos="5.10" departSpeed="0.00" departDelay="61.00" arrival="214.00" arrivalLane="gneE39_0" arrivalPos="89.60" arrivalSpeed="11.24" duration="153.00" routeLength="1165.94" waitingTime="23.00" waitingCount="3" stopTime="0.00" timeLoss="80.55" rerouteNo="0" devices="tripinfo_veh32" vType="CarA" speedFactor="1.01" vaporized=""/>
    <tripinfo id="veh29" depart="46.00" departLane="gneE0_0" departPos="5.10" departSpeed="0.00" departDelay="46.00" arrival="214.00" arrivalLane="gneE66_0" arrivalPos="96.80" arrivalSpeed="12.17" duration="168.00" routeLength="1353.75" waitingTime="18.00" waitingCount="3" stopTime="0.00" timeLoss="83.29" rerouteNo="0" devices="tripinfo_veh29" vType="CarA" speedFactor="0.93" vaporized=""/>
    <tripinfo id="veh34" depart="71.00" departLane="gneE0_0" departPos="5.10" departSpeed="0.00" departDelay="71.00" arrival="214.00" arrivalLane="gneE43_0" arrivalPos="89.60" arrivalSpeed="12.34" duration="143.00" routeLength="1346.54" waitingTime="8.00" waitingCount="1" stopTime="0.00" timeLoss="59.30" rerouteNo="0" devices="tripinfo_veh34" vType="CarA" speedFactor="0.99" vaporized=""/>
    <tripinfo id="veh226" depart="101.00" departLane="gneE7_0" departPos="5.10" departSpeed="0.00" departDelay="86.00" arrival="217.00" arrivalLane="gneE2_0" arrivalPos="405.29" arrivalSpeed="16.38" duration="116.00" routeLength="1265.10" waitingTime="7.00" waitingCount="1" stopTime="0.00" timeLoss="39.27" rerouteNo="0" devices="tripinfo_veh226" vType="CarA" speedFactor="1.24" vaporized=""/>
    <tripinfo id="veh30" depart="51.00" departLane="gneE0_0" departPos="5.10" departSpeed="0.00" departDelay="51.00" arrival="217.00" arrivalLane="gneE70_0" arrivalPos="96.80" arrivalSpeed="11.30" duration="166.00" routeLength="1353.75" waitingTime="15.00" waitingCount="2" stopTime="0.00" timeLoss="82.34" rerouteNo="0" devices="tripinfo_veh30" vType="CarA" speedFactor="1.18" vaporized=""/>
    <tripinfo id="veh220" depart="91.00" departLane="gneE7_0" departPos="5.10" departSpeed="0.00" departDelay="86.00" arrival="219.00" arrivalLane="gneE2_0" arrivalPos="405.29" arrivalSpeed="16.44" duration="128.00" routeLength="1265.10" waitingTime="6.00" waitingCount="1" stopTime="0.00" timeLoss="51.68" rerouteNo="0" devices="tripinfo_veh220" vType="CarA" speedFactor="1.00" vaporized=""/>
    <tripinfo id="veh33" depart="66.00" departLane="gneE0_0" departPos="5.10" departSpeed="0.00" departDelay="66.00" arrival="220.00" arrivalLane="gneE41_0" arrivalPos="89.60" arrivalSpeed="11.79" duration="154.00" routeLength="1167.38" waitingTime="20.00" waitingCount="3" stopTime="0.00" timeLoss="83.32" rerouteNo="0" devices="tripinfo_veh33" vType="CarA" speedFactor="1.17" vaporized=""/>
    <tripinfo id="veh232" depart="112.00" departLane="gneE7_0" departPos="5.10" departSpeed="0.00" departDelay="87.00" arrival="221.00" arrivalLane="gneE2_0" arrivalPos="405.29" arrivalSpeed="16.53" duration="109.00" routeLength="1265.10" waitingTime="0.00" waitingCount="0" stopTime="0.00" timeLoss="31.66" rerouteNo="0" devices="tripinfo_veh232" vType="CarA" speedFactor="0.97" vaporized=""/>
    <tripinfo id="veh184" depart="76.00" departLane="gneE7_0" departPos="5.10" departSpeed="0.00" departDelay="76.00" arrival="222.00" arrivalLane="gneE45_0" arrivalPos="89.60" arrivalSpeed="11.79" duration="146.00" routeLength="494.65" waitingTime="58.00" waitingCount="3" stopTime="0.00" timeLoss="113.60" rerouteNo="0" devices="tripinfo_veh184" vType="CarA" speedFactor="0.94" vaporized=""/>
    <tripinfo id="veh185" depart="81.00" departLane="gneE7_0" departPos="5.10" departSpeed="0.00" departDelay="81.00" arrival="222.00" arrivalLane="gneE39_0" arrivalPos="89.60" arrivalSpeed="16.43" duration="141.00" routeLength="684.61" waitingTime="50.00" waitingCount="2" stopTime="0.00" timeLoss="97.29" rerouteNo="0" devices="tripinfo_veh185" vType="CarA" speedFactor="0.92" vaporized=""/>
    <tripinfo id="veh22" depart="21.00" departLane="gneE0_0" departPos="5.10" departSpeed="0.00" departDelay="21.00" arrival="226.00" arrivalLane="gneE21_0" arrivalPos="189.60" arrivalSpeed="15.98" duration="205.00" routeLength="1659.60" waitingTime="35.00" waitingCount="2" stopTime="0.00" timeLoss="103.52" rerouteNo="0" devices="tripinfo_veh22" vType="CarA" speedFactor="0.98" vaporized=""/>
    <tripinfo id="veh186" depart="86.00" departLane="gneE7_0" departPos="5.10" departSpeed="0.00" departDelay="86.00" arrival="229.00" arrivalLane="gneE41_0" arrivalPos="89.60" arrivalSpeed="13.07" duration="143.00" routeLength="675.25" waitingTime="50.00" waitingCount="2" stopTime="0.00" timeLoss="99.63" rerouteNo="0" devices="tripinfo_veh186" vType="CarA" speedFactor="1.08" vaporized=""/>
    <tripinfo id="veh35" depart="76.00" departLane="gneE0_0" departPos="5.10" departSpeed="0.00" departDelay="76.00" arrival="230.00" arrivalLane="gneE45_0" arrivalPos="89.60" arrivalSpeed="16.45" duration="154.00" routeLength="1355.90" waitingTime="14.00" waitingCount="2" stopTime="0.00" timeLoss="69.74" rerouteNo="0" devices="tripinfo_veh35" vType="CarA" speedFactor="1.02" vaporized=""/>
    <tripinfo id="veh218" depart="123.00" departLane="gneE0_0" departPos="5.10" departSpeed="0.00" departDelay="118.00" arrival="234.00" arrivalLane="gneE2_0" arrivalPos="405.29" arrivalSpeed="16.63" duration="111.00" routeLength="1594.89" waitingTime="0.00" waitingCount="0" stopTime="0.00" timeLoss="15.15" rerouteNo="0" devices="tripinfo_veh218" vType="CarA" speedFactor="1.07" vaporized=""/>
    <tripinfo id="veh39" depart="96.00" departLane="gneE0_0" departPos="5.10" departSpeed="0.00" departDelay="96.00" arrival="238.00" arrivalLane="gneE47_0" arrivalPos="92.80" arrivalSpeed="15.74" duration="142.00" routeLength="1458.69" waitingTime="8.00" waitingCount="1" stopTime="0.00" timeLoss="51.05" rerouteNo="0" devices="tripinfo_veh39" vType="CarA" speedFactor="0.90" vaporized=""/>
    <tripinfo id="veh221" depart="128.00" departLane="gneE0_0" departPos="5.10" departSpeed="0.00" departDelay="118.00" arrival="239.00" arrivalLane="gneE2_0" arrivalPos="405.29" arrivalSpeed="16.58" duration="111.00" routeLength="1594.89" waitingTime="0.00" waitingCount="0" stopTime="0.00" timeLoss="15.31" rerouteNo="0" devices="tripinfo_veh221" vType="CarA" speedFactor="1.15" vaporized=""/>
    <tripinfo id="veh283" depart="100.00" departLane="gneE48_0" departPos="5.10" departSpeed="0.00" departDelay="0.00" arrival="243.00" arrivalLane="gneE2_0" arrivalPos="405.29" arrivalSpeed="16.49" duration="143.00" routeLength="1056.37" waitingTime="21.00" waitingCount="3" stopTime="0.00" timeLoss="77.09" rerouteNo="0" devices="tripinfo_veh283" vType="CarA" speedFactor="1.02" vaporized=""/>
    <tripinfo id="veh224" depart="134.00" departLane="gneE0_0" departPos="5.10" departSpeed="0.00" departDelay="119.00" arrival="244.00" arrivalLane="gneE2_1" arrivalPos="405.29" arrivalSpeed="16.66" duration="110.00" routeLength="1594.89" waitingTime="0.00" waitingCount="0" stopTime="0.00" timeLoss="13.98" rerouteNo="0" devices="tripinfo_veh224" vType="CarA" speedFactor="1.02" vaporized=""/>
    <tripinfo id="veh227" depart="139.00" departLane="gneE0_0" departPos="5.10" departSpeed="0.00" departDelay="119.00" arrival="249.00" arrivalLane="gneE2_1" arrivalPos="405.29" arrivalSpeed="16.55" duration="110.00" routeLength="1594.89" waitingTime="0.00" waitingCount="0" stopTime="0.00" timeLoss="14.20" rerouteNo="0" devices="tripinfo_veh227" vType="CarA" speedFactor="1.11" vaporized=""/>
    <tripinfo id="veh229" depart="106.00" departLane="gneE7_0" departPos="5.10" departSpeed="0.00" departDelay="86.00" arrival="250.00" arrivalLane="gneE2_0" arrivalPos="405.29" arrivalSpeed="16.53" duration="144.00" routeLength="1265.10" waitingTime="15.00" waitingCount="2" stopTime="0.00" timeLoss="67.01" rerouteNo="0" devices="tripinfo_veh229" vType="CarA" speedFactor="0.99" vaporized=""/>
    <tripinfo id="veh230" depart="144.00" departLane="gneE0_0" departPos="5.10" departSpeed="0.00" departDelay="119.00" arrival="254.00" arrivalLane="gneE2_0" arrivalPos="405.29" arrivalSpeed="16.70" duration="110.00" routeLength="1594.89" waitingTime="0.00" waitingCount="0" stopTime="0.00" timeLoss="14.45" rerouteNo="0" devices="tripinfo_veh230" vType="CarA" speedFactor="1.04" vaporized=""/>
    <tripinfo id="veh233" depart="149.00" departLane="gneE0_0" departPos="5.10" departSpeed="0.00" departDelay="119.00" arrival="260.00" arrivalLane="gneE2_0" arrivalPos="405.29" arrivalSpeed="16.67" duration="111.00" routeLength="1594.89" waitingTime="0.00" waitingCount="0" stopTime="0.00" timeLoss="14.58" rerouteNo="0" devices="tripinfo_veh233" vType="CarA" speedFactor="1.15" vaporized=""/>
    <tripinfo id="veh40" depart="102.00" departLane="gneE0_0" departPos="5.10" departSpeed="0.00" departDelay="102.00" arrival="261.00" arrivalLane="gneE50_0" arrivalPos="96.80" arrivalSpeed="11.87" duration="159.00" routeLength="1554.66" waitingTime="7.00" waitingCount="2" stopTime="0.00" timeLoss="61.97" rerouteNo="0" devices="tripinfo_veh40" vType="CarA" speedFactor="1.03" vaporized=""/>
    <tripinfo id="veh284" depart="100.00" departLane="gneE51_0" departPos="5.10" departSpeed="0.00" departDelay="0.00" arrival="264.00" arrivalLane="gneE2_0" arrivalPos="405.29" arrivalSpeed="16.43" duration="164.00" routeLength="1152.34" waitingTime="27.00" waitingCount="2" stopTime="0.00" timeLoss="91.19" rerouteNo="0" devices="tripinfo_veh284" vType="CarA" speedFactor="0.76" vaporized=""/>
    <tripinfo id="veh236" depart="154.00" departLane="gneE0_0" departPos="5.10" departSpeed="0.00" departDelay="119.00" arrival="266.00" arrivalLane="gneE2_1" arrivalPos="405.29" arrivalSpeed="16.59" duration="112.00" routeLength="1594.89" waitingTime="0.00" waitingCount="0" stopTime="0.00" timeLoss="15.75" rerouteNo="0" devices="tripinfo_veh236" vType="CarA" speedFactor="1.04" vaporized=""/>
    <tripinfo id="veh239" depart="159.00" departLane="gneE0_0" departPos="5.10" departSpeed="0.00" departDelay="119.00" arrival="269.00" arrivalLane="gneE2_0" arrivalPos="405.29" arrivalSpeed="16.61" duration="110.00" routeLength="1594.89" waitingTime="0.00" waitingCount="0" stopTime="0.00" timeLoss="13.83" rerouteNo="0" devices="tripinfo_veh239" vType="CarA" speedFactor="1.13" vaporized=""/>
    <tripinfo id="veh238" depart="122.00" departLane="gneE7_0" departPos="5.10" departSpeed="0.00" departDelay="87.00" arrival="271.00" arrivalLane="gneE2_0" arrivalPos="405.29" arrivalSpeed="16.62" duration="149.00" routeLength="1265.10" waitingTime="24.00" waitingCount="2" stopTime="0.00" timeLoss="73.11" rerouteNo="0" devices="tripinfo_veh238" vType="CarA" speedFactor="1.10" vaporized=""/>
    <tripinfo id="veh242" depart="164.00" departLane="gneE0_0" departPos="5.10" departSpeed="0.00" departDelay="119.00" arrival="274.00" arrivalLane="gneE2_2" arrivalPos="405.29" arrivalSpeed="16.42" duration="110.00" routeLength="1594.89" waitingTime="0.00" waitingCount="0" stopTime="0.00" timeLoss="14.09" rerouteNo="0" devices="tripinfo_veh242" vType="CarA" speedFactor="0.97" vaporized=""/>
    <tripinfo id="veh250" depart="144.00" departLane="gneE7_0" departPos="5.10" departSpeed="0.00" departDelay="89.00" arrival="275.00" arrivalLane="gneE2_1" arrivalPos="405.29" arrivalSpeed="16.65" duration="131.00" routeLength="1265.10" waitingTime="16.00" waitingCount="1" stopTime="0.00" timeLoss="52.88" rerouteNo="0" devices="tripinfo_veh250" vType="CarA" speedFactor="0.93" vaporized=""/>
    <tripinfo id="veh247" depart="138.00" departLane="gneE7_0" departPos="5.10" departSpeed="0.00" departDelay="88.00" arrival="276.00" arrivalLane="gneE2_1" arrivalPos="405.29" arrivalSpeed="16.51" duration="138.00" routeLength="1265.10" waitingTime="15.00" waitingCount="1" stopTime="0.00" timeLoss="60.80" rerouteNo="0" devices="tripinfo_veh247" vType="CarA" speedFactor="1.04" vaporized=""/>
    <tripinfo id="veh235" depart="117.00" departLane="gneE7_0" departPos="5.10" departSpeed="0.00" departDelay="87.00" arrival="276.00" arrivalLane="gneE2_0" arrivalPos="405.29" arrivalSpeed="16.33" duration="159.00" routeLength="1265.10" waitingTime="28.00" waitingCount="2" stopTime="0.00" timeLoss="81.58" rerouteNo="0" devices="tripinfo_veh235" vType="CarA" speedFactor="0.96" vaporized=""/>