<?xml version="1.0" encoding="UTF-8"?>

<!-- generated on 11/01/18 23:15:25 by Eclipse SUMO GUI Version 1.0.1
<configuration xmlns:xsi="http://www.w3.org/2001/XMLSchema-instance" xsi:noNamespaceSchemaLocation="http://sumo.dlr.de/xsd/sumoConfiguration.xsd">

    <input>
        <net-file value="data/CustomNet.net.xml"/>
        <route-files value="data/CustomNetCycle.rou.xml"/>
    </input>

    <output>
        <tripinfo-output value="tripinfo.xml"/>
    </output>

    <processing>
        <time-to-teleport value="-1"/>
    </processing>

    <traci_server>
        <remote-port value="56745"/>
    </traci_server>

</configuration>
-->

<tripinfos xmlns:xsi="http://www.w3.org/2001/XMLSchema-instance" xsi:noNamespaceSchemaLocation="http://sumo.dlr.de/xsd/tripinfo_file.xsd">
    <tripinfo id="veh46" depart="10.00" departLane="gneE16_0" departPos="5.10" departSpeed="0.00" departDelay="10.00" arrival="73.00" arrivalLane="gneE70_0" arrivalPos="96.80" arrivalSpeed="11.48" duration="63.00" routeLength="490.12" waitingTime="0.00" waitingCount="0" stopTime="0.00" timeLoss="30.76" rerouteNo="0" devices="tripinfo_veh46" vType="CarA" speedFactor="1.00" vaporized=""/>
    <tripinfo id="veh47" depart="16.00" departLane="gneE16_0" departPos="5.10" departSpeed="0.00" departDelay="16.00" arrival="73.00" arrivalLane="gneE73_0" arrivalPos="92.80" arrivalSpeed="16.49" duration="57.00" routeLength="596.09" waitingTime="0.00" waitingCount="0" stopTime="0.00" timeLoss="19.31" rerouteNo="0" devices="tripinfo_veh47" vType="CarA" speedFactor="0.90" vaporized=""/>
    <tripinfo id="veh80" depart="30.00" departLane="gneE7_0" departPos="5.10" departSpeed="0.00" departDelay="30.00" arrival="82.00" arrivalLane="gneE43_0" arrivalPos="89.60" arrivalSpeed="13.33" duration="52.00" routeLength="496.09" waitingTime="0.00" waitingCount="0" stopTime="0.00" timeLoss="21.20" rerouteNo="0" devices="tripinfo_veh80" vType="CarA" speedFactor="1.03" vaporized=""/>
    <tripinfo id="veh81" depart="5.00" departLane="gneE40_0" departPos="5.10" departSpeed="0.00" departDelay="5.00" arrival="86.00" arrivalLane="gneE21_0" arrivalPos="189.60" arrivalSpeed="16.03" duration="81.00" routeLength="681.68" waitingTime="2.00" waitingCount="1" stopTime="0.00" timeLoss="37.51" rerouteNo="0" devices="tripinfo_veh81" vType="CarA" speedFactor="1.00" vaporized=""/>
    <tripinfo id="veh93" depart="20.00" departLane="gneE46_0" departPos="5.10" departSpeed="0.00" departDelay="20.00" arrival="86.00" arrivalLane="gneE57_0" arrivalPos="92.80" arrivalSpeed="15.64" duration="66.00" routeLength="486.42" waitingTime="3.00" waitingCount="1" stopTime="0.00" timeLoss="35.83" rerouteNo="0" devices="tripinfo_veh93" vType="CarA" speedFactor="0.92" vaporized=""/>
    <tripinfo id="veh37" depart="10.00" departLane="gneE64_0" departPos="5.10" departSpeed="0.00" departDelay="10.00" arrival="88.00" arrivalLane="gneE6_0" arrivalPos="192.80" arrivalSpeed="15.84" duration="78.00" routeLength="386.33" waitingTime="26.00" waitingCount="1" stopTime="0.00" timeLoss="53.72" rerouteNo="0" devices="tripinfo_veh37" vType="CarA" speedFactor="1.18" vaporized=""/>
    <tripinfo id="veh2" depart="0.00" departLane="gneE7_0" departPos="5.10" departSpeed="0.00" departDelay="0.00" arrival="98.00" arrivalLane="gneE2_0" arrivalPos="405.29" arrivalSpeed="16.31" duration="98.00" routeLength="1265.10" waitingTime="0.00" waitingCount="0" stopTime="0.00" timeLoss="21.42" rerouteNo="0" devices="tripinfo_veh2" vType="CarA" speedFactor="1.01" vaporized=""/>
    <tripinfo id="veh0" depart="0.00" departLane="gneE0_0" departPos="5.10" departSpeed="0.00" departDelay="0.00" arrival="111.00" arrivalLane="gneE2_0" arrivalPos="405.29" arrivalSpeed="16.57" duration="111.00" routeLength="1594.89" waitingTime="0.00" waitingCount="0" stopTime="0.00" timeLoss="14.59" rerouteNo="0" devices="tripinfo_veh0" vType="CarA" speedFactor="1.06" vaporized=""/>
    <tripinfo id="veh16" depart="5.00" departLane="gneE0_0" departPos="5.10" departSpeed="0.00" departDelay="5.00" arrival="115.00" arrivalLane="gneE2_0" arrivalPos="405.29" arrivalSpeed="16.48" duration="110.00" routeLength="1594.89" waitingTime="0.00" waitingCount="0" stopTime="0.00" timeLoss="14.37" rerouteNo="0" devices="tripinfo_veh16" vType="CarA" speedFactor="0.88" vaporized=""/>
    <tripinfo id="veh57" depart="5.00" departLane="gneE58_0" departPos="5.10" departSpeed="0.00" departDelay="5.00" arrival="116.00" arrivalLane="gneE21_0" arrivalPos="189.60" arrivalSpeed="15.90" duration="111.00" routeLength="396.09" waitingTime="58.00" waitingCount="1" stopTime="0.00" timeLoss="86.08" rerouteNo="0" devices="tripinfo_veh57" vType="CarA" speedFactor="1.14" vaporized=""/>
    <tripinfo id="veh40" depart="5.00" departLane="gneE67_0" departPos="5.10" departSpeed="0.00" departDelay="5.00" arrival="119.00" arrivalLane="gneE6_0" arrivalPos="192.80" arrivalSpeed="16.36" duration="114.00" routeLength="482.30" waitingTime="40.00" waitingCount="2" stopTime="0.00" timeLoss="81.90" rerouteNo="0" devices="tripinfo_veh40" vType="CarA" speedFactor="1.03" vaporized=""/>
    <tripinfo id="veh70" depart="5.00" departLane="gneE61_0" departPos="5.10" departSpeed="0.00" departDelay="5.00" arrival="127.00" arrivalLane="gneE21_0" arrivalPos="189.60" arrivalSpeed="16.35" duration="122.00" routeLength="491.52" waitingTime="56.00" waitingCount="1" stopTime="0.00" timeLoss="90.58" rerouteNo="0" devices="tripinfo_veh70" vType="CarA" speedFactor="1.02" vaporized=""/>
    <tripinfo id="veh75" depart="5.00" departLane="gneE7_0" departPos="5.10" departSpeed="0.00" departDelay="5.00" arrival="144.00" arrivalLane="gneE57_0" arrivalPos="92.80" arrivalSpeed="15.55" duration="139.00" routeLength="383.56" waitingTime="88.00" waitingCount="1" stopTime="0.00" timeLoss="114.80" rerouteNo="0" devices="tripinfo_veh75" vType="CarA" speedFactor="0.98" vaporized=""/>
    <tripinfo id="veh28" depart="11.00" departLane="gneE84_0" departPos="5.10" departSpeed="0.00" departDelay="11.00" arrival="145.00" arrivalLane="gneE6_0" arrivalPos="192.80" arrivalSpeed="16.10" duration="134.00" routeLength="583.13" waitingTime="55.00" waitingCount="2" stopTime="0.00" timeLoss="98.38" rerouteNo="0" devices="tripinfo_veh28" vType="CarA" speedFactor="1.13" vaporized=""/>
    <tripinfo id="veh102" depart="32.00" departLane="gneE84_0" departPos="5.10" departSpeed="0.00" departDelay="32.00" arrival="146.00" arrivalLane="gneE6_0" arrivalPos="192.80" arrivalSpeed="15.87" duration="114.00" routeLength="583.13" waitingTime="35.00" waitingCount="2" stopTime="0.00" timeLoss="77.66" rerouteNo="0" devices="tripinfo_veh102" vType="CarA" speedFactor="0.97" vaporized=""/>
    <tripinfo id="veh31" depart="5.00" departLane="gneE86_0" departPos="5.10" departSpeed="0.00" departDelay="5.00" arrival="147.00" arrivalLane="gneE6_0" arrivalPos="192.80" arrivalSpeed="15.65" duration="142.00" routeLength="678.56" waitingTime="42.00" waitingCount="3" stopTime="0.00" timeLoss="100.27" rerouteNo="0" devices="tripinfo_veh31" vType="CarA" speedFactor="1.15" vaporized=""/>
    <tripinfo id="veh91" depart="10.00" departLane="gneE46_0" departPos="5.10" departSpeed="0.00" departDelay="10.00" arrival="148.00" arrivalLane="gneE6_1" arrivalPos="192.80" arrivalSpeed="16.11" duration="138.00" routeLength="894.64" waitingTime="27.00" waitingCount="2" stopTime="0.00" timeLoss="81.57" rerouteNo="0" devices="tripinfo_veh91" vType="CarA" speedFactor="0.89" vaporized=""/>
    <tripinfo id="veh83" depart="15.00" departLane="gneE40_0" departPos="5.10" departSpeed="0.00" departDelay="15.00" arrival="148.00" arrivalLane="gneE47_0" arrivalPos="92.80" arrivalSpeed="16.25" duration="133.00" routeLength="886.07" waitingTime="18.00" waitingCount="2" stopTime="0.00" timeLoss="76.60" rerouteNo="0" devices="tripinfo_veh83" vType="CarA" speedFactor="0.97" vaporized=""/>
    <tripinfo id="veh82" depart="10.00" departLane="gneE40_0" departPos="5.10" departSpeed="0.00" departDelay="10.00" arrival="148.00" arrivalLane="gneE63_0" arrivalPos="92.80" arrivalSpeed="16.21" duration="138.00" routeLength="678.45" waitingTime="48.00" waitingCount="2" stopTime="0.00" timeLoss="94.16" rerouteNo="0" devices="tripinfo_veh82" vType="CarA" speedFactor="1.02" vaporized=""/>
    <tripinfo id="veh84" depart="5.00" departLane="gneE42_0" departPos="5.10" departSpeed="0.00" departDelay="5.00" arrival="150.00" arrivalLane="gneE6_1" arrivalPos="192.80" arrivalSpeed="16.61" duration="145.00" routeLength="696.09" waitingTime="46.00" waitingCount="2" stopTime="0.00" timeLoss="102.05" rerouteNo="0" devices="tripinfo_veh84" vType="CarA" speedFactor="1.15" vaporized=""/>
    <tripinfo id="veh92" depart="15.00" departLane="gneE46_0" departPos="5.10" departSpeed="0.00" departDelay="15.00" arrival="151.00" arrivalLane="gneE63_0" arrivalPos="92.80" arrivalSpeed="16.64" duration="136.00" routeLength="886.07" waitingTime="27.00" waitingCount="2" stopTime="0.00" timeLoss="78.72" rerouteNo="0" devices="tripinfo_veh92" vType="CarA" speedFactor="0.83" vaporized=""/>
    <tripinfo id="veh143" depart="35.00" departLane="gneE7_0" departPos="5.10" departSpeed="0.00" departDelay="35.00" arrival="152.00" arrivalLane="gneE57_0" arrivalPos="92.80" arrivalSpeed="16.13" duration="117.00" routeLength="383.56" waitingTime="63.00" waitingCount="1" stopTime="0.00" timeLoss="93.12" rerouteNo="0" devices="tripinfo_veh143" vType="CarA" speedFactor="1.13" vaporized=""/>
    <tripinfo id="veh146" depart="20.00" departLane="gneE40_0" departPos="5.10" departSpeed="0.00" departDelay="20.00" arrival="153.00" arrivalLane="gneE63_0" arrivalPos="92.80" arrivalSpeed="15.85" duration="133.00" routeLength="678.45" waitingTime="30.00" waitingCount="3" stopTime="0.00" timeLoss="89.02" rerouteNo="0" devices="tripinfo_veh146" vType="CarA" speedFactor="0.89" vaporized=""/>
    <tripinfo id="veh112" depart="42.00" departLane="gneE16_0" departPos="5.10" departSpeed="0.00" departDelay="42.00" arrival="161.00" arrivalLane="gneE63_0" arrivalPos="92.80" arrivalSpeed="15.88" duration="119.00" routeLength="394.15" waitingTime="61.00" waitingCount="2" stopTime="0.00" timeLoss="94.00" rerouteNo="0" devices="tripinfo_veh112" vType="CarA" speedFactor="1.10" vaporized=""/>
    <tripinfo id="veh76" depart="10.00" departLane="gneE7_0" departPos="5.10" departSpeed="0.00" departDelay="10.00" arrival="164.00" arrivalLane="gneE54_0" arrivalPos="96.80" arrivalSpeed="11.91" duration="154.00" routeLength="478.56" waitingTime="85.00" waitingCount="1" stopTime="0.00" timeLoss="122.28" rerouteNo="0" devices="tripinfo_veh76" vType="CarA" speedFactor="1.03" vaporized=""/>
    <tripinfo id="veh77" depart="15.00" departLane="gneE7_0" departPos="5.10" departSpeed="0.00" departDelay="15.00" arrival="164.00" arrivalLane="gneE60_0" arrivalPos="96.80" arrivalSpeed="11.79" duration="149.00" routeLength="475.90" waitingTime="82.00" waitingCount="1" stopTime="0.00" timeLoss="117.98" rerouteNo="0" devices="tripinfo_veh77" vType="CarA" speedFactor="0.98" vaporized=""/>
    <tripinfo id="veh50" depart="32.00" departLane="gneE16_0" departPos="5.10" departSpeed="0.00" departDelay="32.00" arrival="164.00" arrivalLane="gneE41_0" arrivalPos="89.60" arrivalSpeed="13.78" duration="132.00" routeLength="683.13" waitingTime="54.00" waitingCount="1" stopTime="0.00" timeLoss="88.80" rerouteNo="0" devices="tripinfo_veh50" vType="CarA" speedFactor="0.85" vaporized=""/>
    <tripinfo id="veh121" depart="20.00" departLane="gneE48_0" departPos="5.10" departSpeed="0.00" departDelay="20.00" arrival="165.00" arrivalLane="gneE43_0" arrivalPos="89.60" arrivalSpeed="11.76" duration="145.00" routeLength="682.38" waitingTime="48.00" waitingCount="2" stopTime="0.00" timeLoss="102.69" rerouteNo="0" devices="tripinfo_veh121" vType="CarA" speedFactor="1.10" vaporized=""/>
    <tripinfo id="veh122" depart="25.00" departLane="gneE48_0" departPos="5.10" departSpeed="0.00" departDelay="25.00" arrival="167.00" arrivalLane="gneE45_0" arrivalPos="89.60" arrivalSpeed="12.51" duration="142.00" routeLength="680.94" waitingTime="44.00" waitingCount="2" stopTime="0.00" timeLoss="97.96" rerouteNo="0" devices="tripinfo_veh122" vType="CarA" speedFactor="1.03" vaporized=""/>
    <tripinfo id="veh78" depart="20.00" departLane="gneE7_0" departPos="5.10" departSpeed="0.00" departDelay="20.00" arrival="169.00" arrivalLane="gneE47_0" arrivalPos="92.80" arrivalSpeed="16.66" duration="149.00" routeLength="586.49" waitingTime="76.00" waitingCount="1" stopTime="0.00" timeLoss="112.47" rerouteNo="0" devices="tripinfo_veh78" vType="CarA" speedFactor="1.01" vaporized=""/>
    <tripinfo id="veh56" depart="10.00" departLane="gneE51_0" departPos="5.10" departSpeed="0.00" departDelay="10.00" arrival="171.00" arrivalLane="gneE43_0" arrivalPos="89.60" arrivalSpeed="13.64" duration="161.00" routeLength="778.35" waitingTime="40.00" waitingCount="3" stopTime="0.00" timeLoss="110.31" rerouteNo="0" devices="tripinfo_veh56" vType="CarA" speedFactor="0.90" vaporized=""/>
    <tripinfo id="veh54" depart="10.00" departLane="gneE48_0" departPos="5.10" departSpeed="0.00" departDelay="10.00" arrival="171.00" arrivalLane="gneE39_0" arrivalPos="89.60" arrivalSpeed="16.45" duration="161.00" routeLength="870.90" waitingTime="55.00" waitingCount="2" stopTime="0.00" timeLoss="105.97" rerouteNo="0" devices="tripinfo_veh54" vType="CarA" speedFactor="1.00" vaporized=""/>
    <tripinfo id="veh113" depart="47.00" departLane="gneE16_0" departPos="5.10" departSpeed="0.00" departDelay="47.00" arrival="178.00" arrivalLane="gneE66_0" arrivalPos="96.80" arrivalSpeed="13.00" duration="131.00" routeLength="490.12" waitingTime="55.00" waitingCount="2" stopTime="0.00" timeLoss="98.84" rerouteNo="0" devices="tripinfo_veh113" vType="CarA" speedFactor="1.01" vaporized=""/>
    <tripinfo id="veh8" depart="0.00" departLane="gneE51_0" departPos="5.10" departSpeed="0.00" departDelay="0.00" arrival="179.00" arrivalLane="gneE2_1" arrivalPos="405.29" arrivalSpeed="16.69" duration="179.00" routeLength="1152.34" waitingTime="40.00" waitingCount="3" stopTime="0.00" timeLoss="106.56" rerouteNo="0" devices="tripinfo_veh8" vType="CarA" speedFactor="0.94" vaporized=""/>
    <tripinfo id="veh52" depart="0.00" departLane="gneE48_0" departPos="5.10" departSpeed="0.00" departDelay="0.00" arrival="179.00" arrivalLane="gneE2_0" arrivalPos="405.29" arrivalSpeed="16.46" duration="179.00" routeLength="1056.37" waitingTime="63.00" waitingCount="2" stopTime="0.00" timeLoss="114.37" rerouteNo="0" devices="tripinfo_veh52" vType="CarA" speedFactor="1.02" vaporized=""/>
    <tripinfo id="veh18" depart="15.00" departLane="gneE0_0" departPos="5.10" departSpeed="0.00" departDelay="15.00" arrival="179.00" arrivalLane="gneE85_0" arrivalPos="96.80" arrivalSpeed="11.81" duration="164.00" routeLength="1147.19" waitingTime="43.00" waitingCount="1" stopTime="0.00" timeLoss="92.22" rerouteNo="0" devices="tripinfo_veh18" vType="CarA" speedFactor="0.94" vaporized=""/>
    <tripinfo id="veh19" depart="21.00" departLane="gneE0_0" departPos="5.10" departSpeed="0.00" departDelay="21.00" arrival="179.00" arrivalLane="gneE63_0" arrivalPos="92.80" arrivalSpeed="16.31" duration="158.00" routeLength="1257.78" waitingTime="40.00" waitingCount="1" stopTime="0.00" timeLoss="80.70" rerouteNo="0" devices="tripinfo_veh19" vType="CarA" speedFactor="1.16" vaporized=""/>
    <tripinfo id="veh123" depart="30.00" departLane="gneE48_0" departPos="5.10" departSpeed="0.00" departDelay="30.00" arrival="179.00" arrivalLane="gneE39_0" arrivalPos="89.60" arrivalSpeed="16.63" duration="149.00" routeLength="870.90" waitingTime="41.00" waitingCount="2" stopTime="0.00" timeLoss="94.05" rerouteNo="0" devices="tripinfo_veh123" vType="CarA" speedFactor="1.02" vaporized=""/>
    <tripinfo id="veh114" depart="52.00" departLane="gneE16_0" departPos="5.10" departSpeed="0.00" departDelay="52.00" arrival="180.00" arrivalLane="gneE73_0" arrivalPos="92.80" arrivalSpeed="16.67" duration="128.00" routeLength="596.09" waitingTime="53.00" waitingCount="3" stopTime="0.00" timeLoss="90.84" rerouteNo="0" devices="tripinfo_veh114" vType="CarA" speedFactor="1.10" vaporized=""/>
    <tripinfo id="veh26" depart="56.00" departLane="gneE0_0" departPos="5.10" departSpeed="0.00" departDelay="56.00" arrival="188.00" arrivalLane="gneE47_0" arrivalPos="92.80" arrivalSpeed="15.31" duration="132.00" routeLength="1458.69" waitingTime="2.00" waitingCount="1" stopTime="0.00" timeLoss="41.49" rerouteNo="0" devices="tripinfo_veh26" vType="CarA" speedFactor="0.92" vaporized=""/>
    <tripinfo id="veh10" depart="0.00" departLane="gneE55_0" departPos="5.10" departSpeed="0.00" departDelay="0.00" arrival="191.00" arrivalLane="gneE2_0" arrivalPos="405.29" arrivalSpeed="16.58" duration="191.00" routeLength="1345.94" waitingTime="52.00" waitingCount="2" stopTime="0.00" timeLoss="107.85" rerouteNo="0" devices="tripinfo_veh10" vType="CarA" speedFactor="1.09" vaporized=""/>
    <tripinfo id="veh95" depart="10.00" departLane="gneE44_0" departPos="5.10" departSpeed="0.00" departDelay="10.00" arrival="193.00" arrivalLane="gneE2_0" arrivalPos="405.29" arrivalSpeed="16.50" duration="183.00" routeLength="1366.13" waitingTime="34.00" waitingCount="2" stopTime="0.00" timeLoss="99.24" rerouteNo="0" devices="tripinfo_veh95" vType="CarA" speedFactor="1.06" vaporized=""/>
    <tripinfo id="veh22" depart="36.00" departLane="gneE0_0" departPos="5.10" departSpeed="0.00" departDelay="36.00" arrival="195.00" arrivalLane="gneE45_0" arrivalPos="89.60" arrivalSpeed="16.31" duration="159.00" routeLength="1355.90" waitingTime="28.00" waitingCount="1" stopTime="0.00" timeLoss="75.08" rerouteNo="0" devices="tripinfo_veh22" vType="CarA" speedFactor="0.98" vaporized=""/>
    <tripinfo id="veh151" depart="25.00" departLane="gneE46_0" departPos="5.10" departSpeed="0.00" departDelay="25.00" arrival="196.00" arrivalLane="gneE2_1" arrivalPos="405.29" arrivalSpeed="16.40" duration="171.00" routeLength="1357.06" waitingTime="31.00" waitingCount="2" stopTime="0.00" timeLoss="86.57" rerouteNo="0" devices="tripinfo_veh151" vType="CarA" speedFactor="1.00" vaporized=""/>
    <tripinfo id="veh9" depart="0.00" departLane="gneE58_0" departPos="5.10" departSpeed="0.00" departDelay="0.00" arrival="196.00" arrivalLane="gneE2_0" arrivalPos="405.29" arrivalSpeed="16.35" duration="196.00" routeLength="1253.17" waitingTime="65.00" waitingCount="2" stopTime="0.00" timeLoss="118.62" rerouteNo="0" devices="tripinfo_veh9" vType="CarA" speedFactor="0.86" vaporized=""/>
    <tripinfo id="veh152" depart="87.00" departLane="gneE0_0" departPos="5.10" departSpeed="0.00" departDelay="72.00" arrival="197.00" arrivalLane="gneE2_2" arrivalPos="405.29" arrivalSpeed="16.46" duration="110.00" routeLength="1594.89" waitingTime="0.00" waitingCount="0" stopTime="0.00" timeLoss="14.18" rerouteNo="0" devices="tripinfo_veh152" vType="CarA" speedFactor="1.07" vaporized=""/>
    <tripinfo id="veh90" depart="5.00" departLane="gneE46_0" departPos="5.10" departSpeed="0.00" departDelay="5.00" arrival="198.00" arrivalLane="gneE2_0" arrivalPos="405.29" arrivalSpeed="16.32" duration="193.00" routeLength="1357.06" waitingTime="48.00" waitingCount="2" stopTime="0.00" timeLoss="108.65" rerouteNo="0" devices="tripinfo_veh90" vType="CarA" speedFactor="1.02" vaporized=""/>
    <tripinfo id="veh155" depart="92.00" departLane="gneE0_0" departPos="5.10" departSpeed="0.00" departDelay="62.00" arrival="202.00" arrivalLane="gneE2_0" arrivalPos="405.29" arrivalSpeed="16.62" duration="110.00" routeLength="1594.89" waitingTime="0.00" waitingCount="0" stopTime="0.00" timeLoss="14.43" rerouteNo="0" devices="tripinfo_veh155" vType="CarA" speedFactor="1.12" vaporized=""/>
    <tripinfo id="veh147" depart="25.00" departLane="gneE40_0" departPos="5.10" departSpeed="0.00" departDelay="25.00" arrival="206.00" arrivalLane="gneE57_0" arrivalPos="92.80" arrivalSpeed="15.83" duration="181.00" routeLength="694.04" waitingTime="86.00" waitingCount="3" stopTime="0.00" timeLoss="138.34" rerouteNo="0" devices="tripinfo_veh147" vType="CarA" speedFactor="1.00" vaporized=""/>
    <tripinfo id="veh159" depart="97.00" departLane="gneE0_0" departPos="5.10" departSpeed="0.00" departDelay="37.00" arrival="207.00" arrivalLane="gneE2_0" arrivalPos="405.29" arrivalSpeed="16.52" duration="110.00" routeLength="1594.89" waitingTime="0.00" waitingCount="0" stopTime="0.00" timeLoss="14.06" rerouteNo="0" devices="tripinfo_veh159" vType="CarA" speedFactor="1.14" vaporized=""/>
    <tripinfo id="veh79" depart="25.00" departLane="gneE7_0" departPos="5.10" departSpeed="0.00" departDelay="25.00" arrival="207.00" arrivalLane="gneE73_0" arrivalPos="92.80" arrivalSpeed="16.11" duration="182.00" routeLength="983.03" waitingTime="78.00" waitingCount="1" stopTime="0.00" timeLoss="120.96" rerouteNo="0" devices="tripinfo_veh79" vType="CarA" speedFactor="1.09" vaporized=""/>
    <tripinfo id="veh29" depart="16.00" departLane="gneE84_0" departPos="5.10" departSpeed="0.00" departDelay="16.00" arrival="209.00" arrivalLane="gneE57_0" arrivalPos="92.80" arrivalSpeed="16.68" duration="193.00" routeLength="982.43" waitingTime="73.00" waitingCount="2" stopTime="0.00" timeLoss="131.20" rerouteNo="0" devices="tripinfo_veh29" vType="CarA" speedFactor="0.93" vaporized=""/>
    <tripinfo id="veh98" depart="71.00" departLane="gneE0_0" departPos="5.10" departSpeed="0.00" departDelay="71.00" arrival="209.00" arrivalLane="gneE43_0" arrivalPos="89.60" arrivalSpeed="13.38" duration="138.00" routeLength="1346.54" waitingTime="4.00" waitingCount="1" stopTime="0.00" timeLoss="54.80" rerouteNo="0" devices="tripinfo_veh98" vType="CarA" speedFactor="1.12" vaporized=""/>
    <tripinfo id="veh58" depart="10.00" departLane="gneE58_0" departPos="5.10" departSpeed="0.00" departDelay="10.00" arrival="209.00" arrivalLane="gneE73_0" arrivalPos="92.80" arrivalSpeed="16.21" duration="199.00" routeLength="982.00" waitingTime="85.00" waitingCount="2" stopTime="0.00" timeLoss="138.57" rerouteNo="0" devices="tripinfo_veh58" vType="CarA" speedFactor="1.02" vaporized=""/>
    <tripinfo id="veh32" depart="10.00" departLane="gneE86_0" departPos="5.10" departSpeed="0.00" departDelay="10.00" arrival="212.00" arrivalLane="gneE21_0" arrivalPos="189.60" arrivalSpeed="15.76" duration="202.00" routeLength="1065.50" waitingTime="64.00" waitingCount="3" stopTime="0.00" timeLoss="133.96" rerouteNo="0" devices="tripinfo_veh32" vType="CarA" speedFactor="1.01" vaporized=""/>
    <tripinfo id="veh162" depart="102.00" departLane="gneE0_0" departPos="5.10" departSpeed="0.00" departDelay="27.00" arrival="213.00" arrivalLane="gneE2_2" arrivalPos="405.29" arrivalSpeed="16.69" duration="111.00" routeLength="1594.89" waitingTime="0.00" waitingCount="0" stopTime="0.00" timeLoss="14.98" rerouteNo="0" devices="tripinfo_veh162" vType="CarA" speedFactor="0.99" vaporized=""/>
    <tripinfo id="veh86" depart="16.00" departLane="gneE42_0" departPos="5.10" departSpeed="0.00" departDelay="16.00" arrival="213.00" arrivalLane="gneE73_0" arrivalPos="92.80" arrivalSpeed="16.39" duration="197.00" routeLength="495.06" waitingTime="106.00" waitingCount="5" stopTime="0.00" timeLoss="166.78" rerouteNo="0" devices="tripinfo_veh86" vType="CarA" speedFactor="1.00" vaporized=""/>
    <tripinfo id="veh85" depart="10.00" departLane="gneE42_0" departPos="5.10" departSpeed="0.00" departDelay="10.00" arrival="214.00" arrivalLane="gneE21_0" arrivalPos="189.60" arrivalSpeed="16.20" duration="204.00" routeLength="680.23" waitingTime="98.00" waitingCount="4" stopTime="0.00" timeLoss="159.27" rerouteNo="0" devices="tripinfo_veh85" vType="CarA" speedFactor="0.98" vaporized=""/>
    <tripinfo id="veh157" depart="55.00" departLane="gneE7_0" departPos="5.10" departSpeed="0.00" departDelay="25.00" arrival="214.00" arrivalLane="gneE2_1" arrivalPos="405.29" arrivalSpeed="16.66" duration="159.00" routeLength="1265.10" waitingTime="47.00" waitingCount="1" stopTime="0.00" timeLoss="81.83" rerouteNo="0" devices="tripinfo_veh157" vType="CarA" speedFactor="1.08" vaporized=""/>
    <tripinfo id="veh154" depart="50.00" departLane="gneE7_0" departPos="5.10" departSpeed="0.00" departDelay="35.00" arrival="214.00" arrivalLane="gneE2_0" arrivalPos="405.29" arrivalSpeed="16.52" duration="164.00" routeLength="1265.10" waitingTime="50.00" waitingCount="1" stopTime="0.00" timeLoss="86.85" rerouteNo="0" devices="tripinfo_veh154" vType="CarA" speedFactor="1.06" vaporized=""/>
    <tripinfo id="veh48" depart="21.00" departLane="gneE16_0" departPos="5.10" departSpeed="0.00" departDelay="21.00" arrival="217.00" arrivalLane="gneE21_0" arrivalPos="189.60" arrivalSpeed="16.29" duration="196.00" routeLength="1158.14" waitingTime="60.00" waitingCount="1" stopTime="0.00" timeLoss="121.94" rerouteNo="0" devices="tripinfo_veh48" vType="CarA" speedFactor="0.88" vaporized=""/>
    <tripinfo id="veh175" depart="107.00" departLane="gneE0_0" departPos="5.10" departSpeed="0.00" departDelay="7.00" arrival="218.00" arrivalLane="gneE2_1" arrivalPos="405.29" arrivalSpeed="16.45" duration="111.00" routeLength="1594.89" waitingTime="0.00" waitingCount="0" stopTime="0.00" timeLoss="15.04" rerouteNo="0" devices="tripinfo_veh175" vType="CarA" speedFactor="0.92" vaporized=""/>
    <tripinfo id="veh161" depart="66.00" departLane="gneE7_0" departPos="5.10" departSpeed="0.00" departDelay="6.00" arrival="218.00" arrivalLane="gneE2_0" arrivalPos="405.29" arrivalSpeed="16.46" duration="152.00" routeLength="1265.10" waitingTime="41.00" waitingCount="1" stopTime="0.00" timeLoss="74.42" rerouteNo="0" devices="tripinfo_veh161" vType="CarA" speedFactor="1.08" vaporized=""/>
    <tripinfo id="veh120" depart="15.00" departLane="gneE48_0" departPos="5.10" departSpeed="0.00" departDelay="15.00" arrival="218.00" arrivalLane="gneE73_0" arrivalPos="92.80" arrivalSpeed="16.60" duration="203.00" routeLength="1169.32" waitingTime="53.00" waitingCount="3" stopTime="0.00" timeLoss="128.15" rerouteNo="0" devices="tripinfo_veh120" vType="CarA" speedFactor="0.94" vaporized=""/>
    <tripinfo id="veh38" depart="15.00" departLane="gneE64_0" departPos="5.10" departSpeed="0.00" departDelay="15.00" arrival="220.00" arrivalLane="gneE21_0" arrivalPos="189.60" arrivalSpeed="16.00" duration="205.00" routeLength="1157.39" waitingTime="61.00" waitingCount="2" stopTime="0.00" timeLoss="131.11" rerouteNo="0" devices="tripinfo_veh38" vType="CarA" speedFactor="1.10" vaporized=""/>
    <tripinfo id="veh164" depart="75.00" departLane="gneE7_0" departPos="5.10" departSpeed="0.00" departDelay="0.00" arrival="220.00" arrivalLane="gneE2_1" arrivalPos="405.29" arrivalSpeed="16.55" duration="145.00" routeLength="1265.10" waitingTime="32.00" waitingCount="1" stopTime="0.00" timeLoss="67.96" rerouteNo="0" devices="tripinfo_veh164" vType="CarA" speedFactor="1.05" vaporized=""/>
    <tripinfo id="veh158" depart="61.00" departLane="gneE7_0" departPos="5.10" departSpeed="0.00" departDelay="16.00" arrival="220.00" arrivalLane="gneE2_0" arrivalPos="405.29" arrivalSpeed="16.59" duration="159.00" routeLength="1265.10" waitingTime="44.00" waitingCount="1" stopTime="0.00" timeLoss="81.68" rerouteNo="0" devices="tripinfo_veh158" vType="CarA" speedFactor="0.91" vaporized=""/>
    <tripinfo id="veh145" depart="45.00" departLane="gneE7_0" departPos="5.10" departSpeed="0.00" departDelay="45.00" arrival="221.00" arrivalLane="gneE43_0" arrivalPos="89.60" arrivalSpeed="11.53" duration="176.00" routeLength="496.09" waitingTime="101.00" waitingCount="2" stopTime="0.00" timeLoss="145.58" rerouteNo="0" devices="tripinfo_veh145" vType="CarA" speedFactor="1.14" vaporized=""/>
    <tripinfo id="veh177" depart="113.00" departLane="gneE0_0" departPos="5.10" departSpeed="0.00" departDelay="13.00" arrival="223.00" arrivalLane="gneE2_0" arrivalPos="405.29" arrivalSpeed="16.54" duration="110.00" routeLength="1594.89" waitingTime="0.00" waitingCount="0" stopTime="0.00" timeLoss="14.48" rerouteNo="0" devices="tripinfo_veh177" vType="CarA" speedFactor="1.03" vaporized=""/>
    <tripinfo id="veh106" depart="25.00" departLane="gneE64_0" departPos="5.10" departSpeed="0.00" departDelay="25.00" arrival="223.00" arrivalLane="gneE57_0" arrivalPos="92.80" arrivalSpeed="14.80" duration="198.00" routeLength="1169.75" waitingTime="51.00" waitingCount="2" stopTime="0.00" timeLoss="123.84" rerouteNo="0" devices="tripinfo_veh106" vType="CarA" speedFactor="1.01" vaporized=""/>
    <tripinfo id="veh21" depart="31.00" departLane="gneE0_0" departPos="5.10" departSpeed="0.00" departDelay="31.00" arrival="225.00" arrivalLane="gneE21_0" arrivalPos="189.60" arrivalSpeed="16.07" duration="194.00" routeLength="1642.39" waitingTime="32.00" waitingCount="1" stopTime="0.00" timeLoss="91.14" rerouteNo="0" devices="tripinfo_veh21" vType="CarA" speedFactor="1.01" vaporized=""/>
    <tripinfo id="veh30" depart="22.00" departLane="gneE84_0" departPos="5.10" departSpeed="0.00" departDelay="22.00" arrival="227.00" arrivalLane="gneE54_0" arrivalPos="96.80" arrivalSpeed="11.75" duration="205.00" routeLength="1077.43" waitingTime="68.00" waitingCount="2" stopTime="0.00" timeLoss="138.56" rerouteNo="0" devices="tripinfo_veh30" vType="CarA" speedFactor="1.18" vaporized=""/>
    <tripinfo id="veh53" depart="5.00" departLane="gneE48_0" departPos="5.10" departSpeed="0.00" departDelay="5.00" arrival="230.00" arrivalLane="gneE85_0" arrivalPos="96.80" arrivalSpeed="12.39" duration="225.00" routeLength="1262.09" waitingTime="66.00" waitingCount="3" stopTime="0.00" timeLoss="144.09" rerouteNo="0" devices="tripinfo_veh53" vType="CarA" speedFactor="1.10" vaporized=""/>
    <tripinfo id="veh71" depart="10.00" departLane="gneE61_0" departPos="5.10" departSpeed="0.00" departDelay="10.00" arrival="230.00" arrivalLane="gneE47_0" arrivalPos="92.80" arrivalSpeed="15.67" duration="220.00" routeLength="669.99" waitingTime="121.00" waitingCount="2" stopTime="0.00" timeLoss="176.63" rerouteNo="0" devices="tripinfo_veh71" vType="CarA" speedFactor="0.97" vaporized=""/>