<?xml version="1.0" encoding="UTF-8"?>

<!-- generated on 10/24/18 13:59:15 by Eclipse SUMO GUI Version 1.0.1
<configuration xmlns:xsi="http://www.w3.org/2001/XMLSchema-instance" xsi:noNamespaceSchemaLocation="http://sumo.dlr.de/xsd/sumoConfiguration.xsd">

    <input>
        <net-file value="data/CustomNet.net.xml"/>
        <route-files value="data/CustomNet.rou.xml"/>
        <additional-files value="data/CustomNetAdditionals.xml"/>
    </input>

    <output>
        <tripinfo-output value="tripinfo.xml"/>
    </output>

    <processing>
        <time-to-teleport value="-1"/>
    </processing>

    <traci_server>
        <remote-port value="64199"/>
    </traci_server>

</configuration>
-->

<tripinfos xmlns:xsi="http://www.w3.org/2001/XMLSchema-instance" xsi:noNamespaceSchemaLocation="http://sumo.dlr.de/xsd/tripinfo_file.xsd">
    <tripinfo id="veh91" depart="13.00" departLane="gneE16_0" departPos="5.10" departSpeed="0.00" departDelay="13.00" arrival="58.00" arrivalLane="gneE63_0" arrivalPos="92.80" arrivalSpeed="17.78" duration="45.00" routeLength="394.15" waitingTime="0.00" waitingCount="0" stopTime="0.00" timeLoss="28.42" rerouteNo="0" devices="tripinfo_veh91" vType="CarA" speedFactor="0.89" vaporized=""/>
    <tripinfo id="veh65" depart="8.00" departLane="gneE64_0" departPos="5.10" departSpeed="0.00" departDelay="8.00" arrival="73.00" arrivalLane="gneE6_0" arrivalPos="192.80" arrivalSpeed="15.93" duration="65.00" routeLength="386.33" waitingTime="13.00" waitingCount="1" stopTime="0.00" timeLoss="49.09" rerouteNo="0" devices="tripinfo_veh65" vType="CarA" speedFactor="0.88" vaporized=""/>
    <tripinfo id="veh0" depart="0.00" departLane="gneE0_0" departPos="5.10" departSpeed="0.00" departDelay="0.00" arrival="78.00" arrivalLane="gneE2_2" arrivalPos="405.29" arrivalSpeed="27.44" duration="78.00" routeLength="1594.89" waitingTime="0.00" waitingCount="0" stopTime="0.00" timeLoss="20.97" rerouteNo="0" devices="tripinfo_veh0" vType="CarA" speedFactor="1.06" vaporized=""/>
    <tripinfo id="veh17" depart="4.00" departLane="gneE0_0" departPos="5.10" departSpeed="0.00" departDelay="4.00" arrival="83.00" arrivalLane="gneE2_2" arrivalPos="405.29" arrivalSpeed="27.58" duration="79.00" routeLength="1594.89" waitingTime="0.00" waitingCount="0" stopTime="0.00" timeLoss="21.07" rerouteNo="0" devices="tripinfo_veh17" vType="CarA" speedFactor="0.94" vaporized=""/>
    <tripinfo id="veh209" depart="32.00" departLane="gneE46_0" departPos="5.10" departSpeed="0.00" departDelay="32.00" arrival="83.00" arrivalLane="gneE57_0" arrivalPos="92.80" arrivalSpeed="16.05" duration="51.00" routeLength="486.92" waitingTime="0.00" waitingCount="0" stopTime="0.00" timeLoss="32.63" rerouteNo="0" devices="tripinfo_veh209" vType="CarA" speedFactor="0.98" vaporized=""/>
    <tripinfo id="veh206" depart="19.00" departLane="gneE46_0" departPos="5.10" departSpeed="0.00" departDelay="19.00" arrival="84.00" arrivalLane="gneE21_0" arrivalPos="189.60" arrivalSpeed="16.54" duration="65.00" routeLength="474.56" waitingTime="5.00" waitingCount="1" stopTime="0.00" timeLoss="46.34" rerouteNo="0" devices="tripinfo_veh206" vType="CarA" speedFactor="1.00" vaporized=""/>
    <tripinfo id="veh20" depart="8.00" departLane="gneE0_0" departPos="5.10" departSpeed="0.00" departDelay="8.00" arrival="87.00" arrivalLane="gneE2_2" arrivalPos="405.29" arrivalSpeed="27.31" duration="79.00" routeLength="1594.89" waitingTime="1.00" waitingCount="1" stopTime="0.00" timeLoss="21.87" rerouteNo="0" devices="tripinfo_veh20" vType="CarA" speedFactor="1.02" vaporized=""/>
    <tripinfo id="veh191" depart="23.00" departLane="gneE40_0" departPos="5.10" departSpeed="0.00" departDelay="23.00" arrival="91.00" arrivalLane="gneE73_0" arrivalPos="92.80" arrivalSpeed="22.35" duration="68.00" routeLength="486.49" waitingTime="12.00" waitingCount="2" stopTime="0.00" timeLoss="49.28" rerouteNo="0" devices="tripinfo_veh191" vType="CarA" speedFactor="0.93" vaporized=""/>
    <tripinfo id="veh83" depart="10.00" departLane="gneE71_0" departPos="5.10" departSpeed="0.00" departDelay="10.00" arrival="100.00" arrivalLane="gneE6_0" arrivalPos="192.80" arrivalSpeed="16.69" duration="90.00" routeLength="482.30" waitingTime="22.00" waitingCount="1" stopTime="0.00" timeLoss="70.23" rerouteNo="0" devices="tripinfo_veh83" vType="CarA" speedFactor="0.97" vaporized=""/>
    <tripinfo id="veh142" depart="49.00" departLane="gneE58_0" departPos="5.10" departSpeed="0.00" departDelay="49.00" arrival="111.00" arrivalLane="gneE45_0" arrivalPos="89.60" arrivalSpeed="13.37" duration="62.00" routeLength="494.31" waitingTime="0.00" waitingCount="0" stopTime="0.00" timeLoss="42.60" rerouteNo="0" devices="tripinfo_veh142" vType="CarA" speedFactor="0.94" vaporized=""/>
    <tripinfo id="veh134" depart="9.00" departLane="gneE58_0" departPos="5.10" departSpeed="0.00" departDelay="9.00" arrival="114.00" arrivalLane="gneE21_0" arrivalPos="189.60" arrivalSpeed="17.25" duration="105.00" routeLength="396.09" waitingTime="55.00" waitingCount="1" stopTime="0.00" timeLoss="89.79" rerouteNo="0" devices="tripinfo_veh134" vType="CarA" speedFactor="1.23" vaporized=""/>
    <tripinfo id="veh47" depart="21.00" departLane="gneE84_0" departPos="5.10" departSpeed="0.00" departDelay="21.00" arrival="114.00" arrivalLane="gneE6_0" arrivalPos="192.80" arrivalSpeed="16.34" duration="93.00" routeLength="583.13" waitingTime="16.00" waitingCount="2" stopTime="0.00" timeLoss="70.43" rerouteNo="0" devices="tripinfo_veh47" vType="CarA" speedFactor="0.90" vaporized=""/>
    <tripinfo id="veh135" depart="13.00" departLane="gneE58_0" departPos="5.10" departSpeed="0.00" departDelay="13.00" arrival="116.00" arrivalLane="gneE47_0" arrivalPos="92.80" arrivalSpeed="16.73" duration="103.00" routeLength="574.56" waitingTime="25.00" waitingCount="2" stopTime="0.00" timeLoss="79.86" rerouteNo="0" devices="tripinfo_veh135" vType="CarA" speedFactor="1.01" vaporized=""/>
    <tripinfo id="veh147" depart="8.00" departLane="gneE55_0" departPos="5.10" departSpeed="0.00" departDelay="8.00" arrival="118.00" arrivalLane="gneE21_0" arrivalPos="189.60" arrivalSpeed="18.89" duration="110.00" routeLength="488.86" waitingTime="44.00" waitingCount="2" stopTime="0.00" timeLoss="88.82" rerouteNo="0" devices="tripinfo_veh147" vType="CarA" speedFactor="1.00" vaporized=""/>
    <tripinfo id="veh189" depart="14.00" departLane="gneE40_0" departPos="5.10" departSpeed="0.00" departDelay="14.00" arrival="125.00" arrivalLane="gneE6_0" arrivalPos="192.80" arrivalSpeed="23.03" duration="111.00" routeLength="687.52" waitingTime="40.00" waitingCount="1" stopTime="0.00" timeLoss="83.94" rerouteNo="0" devices="tripinfo_veh189" vType="CarA" speedFactor="0.97" vaporized=""/>
    <tripinfo id="veh205" depart="14.00" departLane="gneE46_0" departPos="5.10" departSpeed="0.00" departDelay="14.00" arrival="127.00" arrivalLane="gneE6_0" arrivalPos="192.80" arrivalSpeed="23.55" duration="113.00" routeLength="895.34" waitingTime="19.00" waitingCount="1" stopTime="0.00" timeLoss="78.08" rerouteNo="0" devices="tripinfo_veh205" vType="CarA" speedFactor="1.02" vaporized=""/>
    <tripinfo id="veh213" depart="15.00" departLane="gneE44_0" departPos="5.10" departSpeed="0.00" departDelay="15.00" arrival="134.00" arrivalLane="gneE6_1" arrivalPos="192.80" arrivalSpeed="25.60" duration="119.00" routeLength="894.59" waitingTime="28.00" waitingCount="2" stopTime="0.00" timeLoss="83.52" rerouteNo="0" devices="tripinfo_veh213" vType="CarA" speedFactor="1.10" vaporized=""/>
    <tripinfo id="veh210" depart="36.00" departLane="gneE46_0" departPos="5.10" departSpeed="0.00" departDelay="36.00" arrival="135.00" arrivalLane="gneE47_0" arrivalPos="92.80" arrivalSpeed="16.96" duration="99.00" routeLength="678.95" waitingTime="20.00" waitingCount="1" stopTime="0.00" timeLoss="70.88" rerouteNo="0" devices="tripinfo_veh210" vType="CarA" speedFactor="1.10" vaporized=""/>
    <tripinfo id="veh192" depart="27.00" departLane="gneE40_0" departPos="5.10" departSpeed="0.00" departDelay="27.00" arrival="136.00" arrivalLane="gneE63_0" arrivalPos="92.80" arrivalSpeed="18.51" duration="109.00" routeLength="678.95" waitingTime="14.00" waitingCount="2" stopTime="0.00" timeLoss="81.64" rerouteNo="0" devices="tripinfo_veh192" vType="CarA" speedFactor="1.10" vaporized=""/>
    <tripinfo id="veh92" depart="18.00" departLane="gneE16_0" departPos="5.10" departSpeed="0.00" departDelay="18.00" arrival="138.00" arrivalLane="gneE66_0" arrivalPos="96.80" arrivalSpeed="11.87" duration="120.00" routeLength="490.12" waitingTime="46.00" waitingCount="1" stopTime="0.00" timeLoss="97.88" rerouteNo="0" devices="tripinfo_veh92" vType="CarA" speedFactor="0.83" vaporized=""/>
    <tripinfo id="veh208" depart="27.00" departLane="gneE46_0" departPos="5.10" departSpeed="0.00" departDelay="27.00" arrival="140.00" arrivalLane="gneE63_0" arrivalPos="92.80" arrivalSpeed="17.41" duration="113.00" routeLength="886.77" waitingTime="7.00" waitingCount="2" stopTime="0.00" timeLoss="77.13" rerouteNo="0" devices="tripinfo_veh208" vType="CarA" speedFactor="0.96" vaporized=""/>
    <tripinfo id="veh107" depart="5.00" departLane="gneE48_0" departPos="5.10" departSpeed="0.00" departDelay="5.00" arrival="144.00" arrivalLane="gneE2_0" arrivalPos="405.29" arrivalSpeed="24.83" duration="139.00" routeLength="1056.37" waitingTime="31.00" waitingCount="2" stopTime="0.00" timeLoss="98.09" rerouteNo="0" devices="tripinfo_veh107" vType="CarA" speedFactor="1.03" vaporized=""/>
    <tripinfo id="veh108" depart="10.00" departLane="gneE48_0" departPos="5.10" departSpeed="0.00" departDelay="10.00" arrival="146.00" arrivalLane="gneE21_0" arrivalPos="189.60" arrivalSpeed="16.28" duration="136.00" routeLength="594.31" waitingTime="55.00" waitingCount="2" stopTime="0.00" timeLoss="113.46" rerouteNo="0" devices="tripinfo_veh108" vType="CarA" speedFactor="1.06" vaporized=""/>
    <tripinfo id="veh8" depart="0.00" departLane="gneE48_0" departPos="5.10" departSpeed="0.00" departDelay="0.00" arrival="147.00" arrivalLane="gneE2_0" arrivalPos="405.29" arrivalSpeed="22.96" duration="147.00" routeLength="1056.37" waitingTime="36.00" waitingCount="2" stopTime="0.00" timeLoss="106.47" rerouteNo="0" devices="tripinfo_veh8" vType="CarA" speedFactor="0.94" vaporized=""/>
    <tripinfo id="veh26" depart="28.00" departLane="gneE0_0" departPos="5.10" departSpeed="0.00" departDelay="28.00" arrival="148.00" arrivalLane="gneE73_0" arrivalPos="92.80" arrivalSpeed="16.07" duration="120.00" routeLength="1054.42" waitingTime="8.00" waitingCount="2" stopTime="0.00" timeLoss="79.95" rerouteNo="0" devices="tripinfo_veh26" vType="CarA" speedFactor="0.92" vaporized=""/>
    <tripinfo id="veh93" depart="23.00" departLane="gneE16_0" departPos="5.10" departSpeed="0.00" departDelay="23.00" arrival="149.00" arrivalLane="gneE70_0" arrivalPos="96.80" arrivalSpeed="11.01" duration="126.00" routeLength="490.12" waitingTime="44.00" waitingCount="3" stopTime="0.00" timeLoss="105.23" rerouteNo="0" devices="tripinfo_veh93" vType="CarA" speedFactor="0.92" vaporized=""/>
    <tripinfo id="veh172" depart="14.00" departLane="gneE7_0" departPos="5.10" departSpeed="0.00" departDelay="14.00" arrival="151.00" arrivalLane="gneE57_0" arrivalPos="92.80" arrivalSpeed="16.54" duration="137.00" routeLength="383.56" waitingTime="83.00" waitingCount="1" stopTime="0.00" timeLoss="121.22" rerouteNo="0" devices="tripinfo_veh172" vType="CarA" speedFactor="0.89" vaporized=""/>
    <tripinfo id="veh10" depart="0.00" departLane="gneE58_0" departPos="5.10" departSpeed="0.00" departDelay="0.00" arrival="157.00" arrivalLane="gneE2_0" arrivalPos="405.29" arrivalSpeed="22.82" duration="157.00" routeLength="1253.17" waitingTime="36.00" waitingCount="2" stopTime="0.00" timeLoss="110.21" rerouteNo="0" devices="tripinfo_veh10" vType="CarA" speedFactor="1.09" vaporized=""/>
    <tripinfo id="veh133" depart="5.00" departLane="gneE58_0" departPos="5.10" departSpeed="0.00" departDelay="5.00" arrival="157.00" arrivalLane="gneE2_1" arrivalPos="405.29" arrivalSpeed="23.52" duration="152.00" routeLength="1253.17" waitingTime="31.00" waitingCount="1" stopTime="0.00" timeLoss="104.22" rerouteNo="0" devices="tripinfo_veh133" vType="CarA" speedFactor="1.04" vaporized=""/>
    <tripinfo id="veh27" depart="32.00" departLane="gneE0_0" departPos="5.10" departSpeed="0.00" departDelay="32.00" arrival="164.00" arrivalLane="gneE85_0" arrivalPos="96.80" arrivalSpeed="12.87" duration="132.00" routeLength="1147.19" waitingTime="4.00" waitingCount="1" stopTime="0.00" timeLoss="86.74" rerouteNo="0" devices="tripinfo_veh27" vType="CarA" speedFactor="0.95" vaporized=""/>
    <tripinfo id="veh204" depart="9.00" departLane="gneE46_0" departPos="5.10" departSpeed="0.00" departDelay="9.00" arrival="170.00" arrivalLane="gneE2_0" arrivalPos="405.29" arrivalSpeed="23.17" duration="161.00" routeLength="1357.56" waitingTime="43.00" waitingCount="1" stopTime="0.00" timeLoss="108.78" rerouteNo="0" devices="tripinfo_veh204" vType="CarA" speedFactor="1.07" vaporized=""/>
    <tripinfo id="veh188" depart="9.00" departLane="gneE40_0" departPos="5.10" departSpeed="0.00" departDelay="9.00" arrival="170.00" arrivalLane="gneE2_1" arrivalPos="405.29" arrivalSpeed="24.66" duration="161.00" routeLength="1565.38" waitingTime="31.00" waitingCount="1" stopTime="0.00" timeLoss="100.08" rerouteNo="0" devices="tripinfo_veh188" vType="CarA" speedFactor="0.97" vaporized=""/>
    <tripinfo id="veh173" depart="18.00" departLane="gneE7_0" departPos="5.10" departSpeed="0.00" departDelay="18.00" arrival="170.00" arrivalLane="gneE54_0" arrivalPos="96.80" arrivalSpeed="12.18" duration="152.00" routeLength="478.56" waitingTime="82.00" waitingCount="1" stopTime="0.00" timeLoss="132.74" rerouteNo="0" devices="tripinfo_veh173" vType="CarA" speedFactor="1.14" vaporized=""/>
    <tripinfo id="veh212" depart="10.00" departLane="gneE44_0" departPos="5.10" departSpeed="0.00" departDelay="10.00" arrival="173.00" arrivalLane="gneE2_1" arrivalPos="405.29" arrivalSpeed="24.08" duration="163.00" routeLength="1366.13" waitingTime="31.00" waitingCount="2" stopTime="0.00" timeLoss="110.96" rerouteNo="0" devices="tripinfo_veh212" vType="CarA" speedFactor="1.00" vaporized=""/>
    <tripinfo id="veh174" depart="23.00" departLane="gneE7_0" departPos="5.10" departSpeed="0.00" departDelay="23.00" arrival="173.00" arrivalLane="gneE60_0" arrivalPos="96.80" arrivalSpeed="12.35" duration="150.00" routeLength="475.90" waitingTime="79.00" waitingCount="1" stopTime="0.00" timeLoss="129.85" rerouteNo="0" devices="tripinfo_veh174" vType="CarA" speedFactor="0.96" vaporized=""/>
    <tripinfo id="veh94" depart="28.00" departLane="gneE16_0" departPos="5.10" departSpeed="0.00" departDelay="28.00" arrival="174.00" arrivalLane="gneE73_0" arrivalPos="92.80" arrivalSpeed="16.15" duration="146.00" routeLength="596.09" waitingTime="64.00" waitingCount="2" stopTime="0.00" timeLoss="123.35" rerouteNo="0" devices="tripinfo_veh94" vType="CarA" speedFactor="1.09" vaporized=""/>
    <tripinfo id="veh109" depart="15.00" departLane="gneE48_0" departPos="5.10" departSpeed="0.00" departDelay="15.00" arrival="174.00" arrivalLane="gneE57_0" arrivalPos="92.80" arrivalSpeed="17.23" duration="159.00" routeLength="595.77" waitingTime="80.00" waitingCount="2" stopTime="0.00" timeLoss="134.69" rerouteNo="0" devices="tripinfo_veh109" vType="CarA" speedFactor="0.96" vaporized=""/>
    <tripinfo id="veh74" depart="9.00" departLane="gneE67_0" departPos="5.10" departSpeed="0.00" departDelay="9.00" arrival="177.00" arrivalLane="gneE6_0" arrivalPos="192.80" arrivalSpeed="16.86" duration="168.00" routeLength="482.30" waitingTime="86.00" waitingCount="2" stopTime="0.00" timeLoss="147.56" rerouteNo="0" devices="tripinfo_veh74" vType="CarA" speedFactor="0.96" vaporized=""/>
    <tripinfo id="veh122" depart="14.00" departLane="gneE51_0" departPos="5.10" departSpeed="0.00" departDelay="14.00" arrival="182.00" arrivalLane="gneE57_0" arrivalPos="92.80" arrivalSpeed="17.76" duration="168.00" routeLength="691.74" waitingTime="71.00" waitingCount="2" stopTime="0.00" timeLoss="139.80" rerouteNo="0" devices="tripinfo_veh122" vType="CarA" speedFactor="1.03" vaporized=""/>
    <tripinfo id="veh218" depart="112.00" departLane="gneE0_0" departPos="5.10" departSpeed="0.00" departDelay="107.00" arrival="190.00" arrivalLane="gneE2_2" arrivalPos="405.29" arrivalSpeed="27.68" duration="78.00" routeLength="1594.89" waitingTime="0.00" waitingCount="0" stopTime="0.00" timeLoss="20.23" rerouteNo="0" devices="tripinfo_veh218" vType="CarA" speedFactor="1.07" vaporized=""/>
    <tripinfo id="veh13" depart="0.00" departLane="gneE40_0" departPos="5.10" departSpeed="0.00" departDelay="0.00" arrival="190.00" arrivalLane="gneE2_0" arrivalPos="405.29" arrivalSpeed="25.61" duration="190.00" routeLength="1537.84" waitingTime="36.00" waitingCount="3" stopTime="0.00" timeLoss="130.74" rerouteNo="0" devices="tripinfo_veh13" vType="CarA" speedFactor="1.12" vaporized=""/>
    <tripinfo id="veh33" depart="60.00" departLane="gneE0_0" departPos="5.10" departSpeed="0.00" departDelay="60.00" arrival="191.00" arrivalLane="gneE41_0" arrivalPos="92.80" arrivalSpeed="13.08" duration="131.00" routeLength="1167.81" waitingTime="23.00" waitingCount="2" stopTime="0.00" timeLoss="86.60" rerouteNo="0" devices="tripinfo_veh33" vType="CarA" speedFactor="1.17" vaporized=""/>
    <tripinfo id="veh95" depart="32.00" departLane="gneE16_0" departPos="5.10" departSpeed="0.00" departDelay="32.00" arrival="192.00" arrivalLane="gneE85_0" arrivalPos="96.80" arrivalSpeed="13.24" duration="160.00" routeLength="688.86" waitingTime="59.00" waitingCount="2" stopTime="0.00" timeLoss="131.77" rerouteNo="0" devices="tripinfo_veh95" vType="CarA" speedFactor="1.06" vaporized=""/>
    <tripinfo id="veh25" depart="23.00" departLane="gneE0_0" departPos="5.10" departSpeed="0.00" departDelay="23.00" arrival="193.00" arrivalLane="gneE2_0" arrivalPos="405.29" arrivalSpeed="23.36" duration="170.00" routeLength="1746.26" waitingTime="26.00" waitingCount="1" stopTime="0.00" timeLoss="104.39" rerouteNo="0" devices="tripinfo_veh25" vType="CarA" speedFactor="0.87" vaporized=""/>
    <tripinfo id="veh187" depart="4.00" departLane="gneE40_0" departPos="5.10" departSpeed="0.00" departDelay="4.00" arrival="194.00" arrivalLane="gneE2_1" arrivalPos="405.29" arrivalSpeed="24.46" duration="190.00" routeLength="1537.84" waitingTime="26.00" waitingCount="3" stopTime="0.00" timeLoss="128.32" rerouteNo="0" devices="tripinfo_veh187" vType="CarA" speedFactor="0.89" vaporized=""/>
    <tripinfo id="veh14" depart="0.00" departLane="gneE42_0" departPos="5.10" departSpeed="0.00" departDelay="0.00" arrival="195.00" arrivalLane="gneE2_1" arrivalPos="405.29" arrivalSpeed="24.93" duration="195.00" routeLength="1546.41" waitingTime="25.00" waitingCount="3" stopTime="0.00" timeLoss="135.36" rerouteNo="0" devices="tripinfo_veh14" vType="CarA" speedFactor="0.99" vaporized=""/>
    <tripinfo id="veh221" depart="116.00" departLane="gneE0_0" departPos="5.10" departSpeed="0.00" departDelay="106.00" arrival="196.00" arrivalLane="gneE2_2" arrivalPos="405.29" arrivalSpeed="27.68" duration="80.00" routeLength="1594.89" waitingTime="0.00" waitingCount="0" stopTime="0.00" timeLoss="22.46" rerouteNo="0" devices="tripinfo_veh221" vType="CarA" speedFactor="1.15" vaporized=""/>
    <tripinfo id="veh224" depart="121.00" departLane="gneE0_0" departPos="5.10" departSpeed="0.00" departDelay="106.00" arrival="199.00" arrivalLane="gneE2_2" arrivalPos="405.29" arrivalSpeed="27.67" duration="78.00" routeLength="1594.89" waitingTime="0.00" waitingCount="0" stopTime="0.00" timeLoss="20.34" rerouteNo="0" devices="tripinfo_veh224" vType="CarA" speedFactor="1.02" vaporized=""/>
    <tripinfo id="veh15" depart="0.00" departLane="gneE46_0" departPos="5.10" departSpeed="0.00" departDelay="0.00" arrival="199.00" arrivalLane="gneE2_1" arrivalPos="405.29" arrivalSpeed="24.72" duration="199.00" routeLength="1745.66" waitingTime="13.00" waitingCount="2" stopTime="0.00" timeLoss="129.43" rerouteNo="0" devices="tripinfo_veh15" vType="CarA" speedFactor="0.93" vaporized=""/>
    <tripinfo id="veh203" depart="5.00" departLane="gneE46_0" departPos="5.10" departSpeed="0.00" departDelay="5.00" arrival="200.00" arrivalLane="gneE2_1" arrivalPos="405.29" arrivalSpeed="24.22" duration="195.00" routeLength="1745.66" waitingTime="13.00" waitingCount="2" stopTime="0.00" timeLoss="128.60" rerouteNo="0" devices="tripinfo_veh203" vType="CarA" speedFactor="1.11" vaporized=""/>
    <tripinfo id="veh190" depart="18.00" departLane="gneE40_0" departPos="5.10" departSpeed="0.00" departDelay="18.00" arrival="202.00" arrivalLane="gneE21_0" arrivalPos="189.60" arrivalSpeed="16.11" duration="184.00" routeLength="682.38" waitingTime="98.00" waitingCount="2" stopTime="0.00" timeLoss="156.71" rerouteNo="0" devices="tripinfo_veh190" vType="CarA" speedFactor="0.90" vaporized=""/>
    <tripinfo id="veh3" depart="0.00" departLane="gneE84_0" departPos="5.10" departSpeed="0.00" departDelay="0.00" arrival="202.00" arrivalLane="gneE2_1" arrivalPos="405.29" arrivalSpeed="25.19" duration="202.00" routeLength="1459.37" waitingTime="62.00" waitingCount="3" stopTime="0.00" timeLoss="146.05" rerouteNo="0" devices="tripinfo_veh3" vType="CarA" speedFactor="1.08" vaporized=""/>
    <tripinfo id="veh16" depart="0.00" departLane="gneE44_0" departPos="5.10" departSpeed="0.00" departDelay="0.00" arrival="203.00" arrivalLane="gneE2_0" arrivalPos="405.29" arrivalSpeed="24.25" duration="203.00" routeLength="1744.91" waitingTime="12.00" waitingCount="2" stopTime="0.00" timeLoss="132.97" rerouteNo="0" devices="tripinfo_veh16" vType="CarA" speedFactor="0.88" vaporized=""/>
    <tripinfo id="veh21" depart="13.00" departLane="gneE0_0" departPos="5.10" departSpeed="0.00" departDelay="13.00" arrival="204.00" arrivalLane="gneE6_0" arrivalPos="192.80" arrivalSpeed="16.30" duration="191.00" routeLength="1266.35" waitingTime="67.00" waitingCount="2" stopTime="0.00" timeLoss="145.02" rerouteNo="0" devices="tripinfo_veh21" vType="CarA" speedFactor="1.01" vaporized=""/>
    <tripinfo id="veh214" depart="21.00" departLane="gneE44_0" departPos="5.10" departSpeed="0.00" departDelay="21.00" arrival="204.00" arrivalLane="gneE21_0" arrivalPos="189.60" arrivalSpeed="17.30" duration="183.00" routeLength="483.13" waitingTime="108.00" waitingCount="3" stopTime="0.00" timeLoss="163.26" rerouteNo="0" devices="tripinfo_veh214" vType="CarA" speedFactor="0.83" vaporized=""/>
    <tripinfo id="veh4" depart="0.00" departLane="gneE86_0" departPos="5.10" departSpeed="0.00" departDelay="0.00" arrival="205.00" arrivalLane="gneE2_1" arrivalPos="405.29" arrivalSpeed="24.57" duration="205.00" routeLength="1554.80" waitingTime="47.00" waitingCount="2" stopTime="0.00" timeLoss="144.34" rerouteNo="0" devices="tripinfo_veh4" vType="CarA" speedFactor="1.03" vaporized=""/>
    <tripinfo id="veh227" depart="126.00" departLane="gneE0_0" departPos="5.10" departSpeed="0.00" departDelay="106.00" arrival="206.00" arrivalLane="gneE2_2" arrivalPos="405.29" arrivalSpeed="27.55" duration="80.00" routeLength="1594.89" waitingTime="0.00" waitingCount="0" stopTime="0.00" timeLoss="22.12" rerouteNo="0" devices="tripinfo_veh227" vType="CarA" speedFactor="1.11" vaporized=""/>
    <tripinfo id="veh44" depart="6.00" departLane="gneE84_0" departPos="5.10" departSpeed="0.00" departDelay="6.00" arrival="206.00" arrivalLane="gneE2_0" arrivalPos="405.29" arrivalSpeed="23.88" duration="200.00" routeLength="1459.37" waitingTime="59.00" waitingCount="1" stopTime="0.00" timeLoss="143.98" rerouteNo="0" devices="tripinfo_veh44" vType="CarA" speedFactor="1.04" vaporized=""/>
    <tripinfo id="veh28" depart="37.00" departLane="gneE0_0" departPos="5.10" departSpeed="0.00" departDelay="37.00" arrival="206.00" arrivalLane="gneE63_0" arrivalPos="92.80" arrivalSpeed="16.77" duration="169.00" routeLength="1257.78" waitingTime="34.00" waitingCount="3" stopTime="0.00" timeLoss="122.37" rerouteNo="0" devices="tripinfo_veh28" vType="CarA" speedFactor="1.13" vaporized=""/>
    <tripinfo id="veh207" depart="23.00" departLane="gneE46_0" departPos="5.10" departSpeed="0.00" departDelay="23.00" arrival="206.00" arrivalLane="gneE73_0" arrivalPos="92.80" arrivalSpeed="16.85" duration="183.00" routeLength="694.31" waitingTime="93.00" waitingCount="2" stopTime="0.00" timeLoss="156.71" rerouteNo="0" devices="tripinfo_veh207" vType="CarA" speedFactor="0.97" vaporized=""/>
    <tripinfo id="veh54" depart="4.00" departLane="gneE86_0" departPos="5.10" departSpeed="0.00" departDelay="4.00" arrival="207.00" arrivalLane="gneE2_1" arrivalPos="405.29" arrivalSpeed="24.42" duration="203.00" routeLength="1554.80" waitingTime="37.00" waitingCount="3" stopTime="0.00" timeLoss="142.14" rerouteNo="0" devices="tripinfo_veh54" vType="CarA" speedFactor="1.00" vaporized=""/>
    <tripinfo id="veh34" depart="65.00" departLane="gneE0_0" departPos="5.10" departSpeed="0.00" departDelay="65.00" arrival="210.00" arrivalLane="gneE43_0" arrivalPos="92.80" arrivalSpeed="12.83" duration="145.00" routeLength="1352.94" waitingTime="18.00" waitingCount="1" stopTime="0.00" timeLoss="92.95" rerouteNo="0" devices="tripinfo_veh34" vType="CarA" speedFactor="0.99" vaporized=""/>
    <tripinfo id="veh217" depart="34.00" departLane="gneE44_0" departPos="5.10" departSpeed="0.00" departDelay="34.00" arrival="210.00" arrivalLane="gneE57_0" arrivalPos="92.80" arrivalSpeed="16.31" duration="176.00" routeLength="495.49" waitingTime="95.00" waitingCount="3" stopTime="0.00" timeLoss="157.89" rerouteNo="0" devices="tripinfo_veh217" vType="CarA" speedFactor="1.07" vaporized=""/>
    <tripinfo id="veh230" depart="131.00" departLane="gneE0_0" departPos="5.10" departSpeed="0.00" departDelay="106.00" arrival="211.00" arrivalLane="gneE2_2" arrivalPos="405.29" arrivalSpeed="27.43" duration="80.00" routeLength="1594.89" waitingTime="0.00" waitingCount="0" stopTime="0.00" timeLoss="22.23" rerouteNo="0" devices="tripinfo_veh230" vType="CarA" speedFactor="1.04" vaporized=""/>
    <tripinfo id="veh215" depart="26.00" departLane="gneE44_0" departPos="5.10" departSpeed="0.00" departDelay="26.00" arrival="211.00" arrivalLane="gneE73_0" arrivalPos="92.80" arrivalSpeed="15.84" duration="185.00" routeLength="693.56" waitingTime="92.00" waitingCount="3" stopTime="0.00" timeLoss="157.22" rerouteNo="0" devices="tripinfo_veh215" vType="CarA" speedFactor="1.09" vaporized=""/>
    <tripinfo id="veh193" depart="31.00" departLane="gneE40_0" departPos="5.10" departSpeed="0.00" departDelay="31.00" arrival="211.00" arrivalLane="gneE57_0" arrivalPos="92.80" arrivalSpeed="16.50" duration="180.00" routeLength="694.74" waitingTime="79.00" waitingCount="4" stopTime="0.00" timeLoss="153.74" rerouteNo="0" devices="tripinfo_veh193" vType="CarA" speedFactor="1.07" vaporized=""/>
    <tripinfo id="veh137" depart="22.00" departLane="gneE58_0" departPos="5.10" departSpeed="0.00" departDelay="22.00" arrival="212.00" arrivalLane="gneE73_0" arrivalPos="92.80" arrivalSpeed="15.51" duration="190.00" routeLength="985.90" waitingTime="73.00" waitingCount="2" stopTime="0.00" timeLoss="151.86" rerouteNo="0" devices="tripinfo_veh137" vType="CarA" speedFactor="1.02" vaporized=""/>
    <tripinfo id="veh35" depart="70.00" departLane="gneE0_0" departPos="5.10" departSpeed="0.00" departDelay="70.00" arrival="212.00" arrivalLane="gneE45_0" arrivalPos="89.60" arrivalSpeed="13.98" duration="142.00" routeLength="1358.81" waitingTime="12.00" waitingCount="1" stopTime="0.00" timeLoss="90.04" rerouteNo="0" devices="tripinfo_veh35" vType="CarA" speedFactor="1.02" vaporized=""/>
    <tripinfo id="veh48" depart="25.00" departLane="gneE84_0" departPos="5.10" departSpeed="0.00" departDelay="25.00" arrival="213.00" arrivalLane="gneE21_0" arrivalPos="189.60" arrivalSpeed="15.52" duration="188.00" routeLength="973.97" waitingTime="67.00" waitingCount="2" stopTime="0.00" timeLoss="147.80" rerouteNo="0" devices="tripinfo_veh48" vType="CarA" speedFactor="0.88" vaporized=""/>
    <tripinfo id="veh1" depart="0.00" departLane="gneE16_0" departPos="5.10" departSpeed="0.00" departDelay="0.00" arrival="213.00" arrivalLane="gneE2_0" arrivalPos="405.29" arrivalSpeed="24.72" duration="213.00" routeLength="1658.34" waitingTime="82.00" waitingCount="1" stopTime="0.00" timeLoss="151.29" rerouteNo="0" devices="tripinfo_veh1" vType="CarA" speedFactor="0.94" vaporized=""/>
    <tripinfo id="veh45" depart="11.00" departLane="gneE84_0" departPos="5.10" departSpeed="0.00" departDelay="11.00" arrival="213.00" arrivalLane="gneE47_0" arrivalPos="92.80" arrivalSpeed="16.77" duration="202.00" routeLength="1171.80" waitingTime="71.00" waitingCount="3" stopTime="0.00" timeLoss="155.64" rerouteNo="0" devices="tripinfo_veh45" vType="CarA" speedFactor="1.09" vaporized=""/>
    <tripinfo id="veh57" depart="18.00" departLane="gneE86_0" departPos="5.10" departSpeed="0.00" departDelay="18.00" arrival="214.00" arrivalLane="gneE6_0" arrivalPos="192.80" arrivalSpeed="21.74" duration="196.00" routeLength="678.56" waitingTime="100.00" waitingCount="2" stopTime="0.00" timeLoss="169.74" rerouteNo="0" devices="tripinfo_veh57" vType="CarA" speedFactor="1.14" vaporized=""/>
    <tripinfo id="veh49" depart="30.00" departLane="gneE84_0" departPos="5.10" departSpeed="0.00" departDelay="30.00" arrival="214.00" arrivalLane="gneE57_0" arrivalPos="92.80" arrivalSpeed="18.37" duration="184.00" routeLength="986.33" waitingTime="61.00" waitingCount="2" stopTime="0.00" timeLoss="142.02" rerouteNo="0" devices="tripinfo_veh49" vType="CarA" speedFactor="0.85" vaporized=""/>
    <tripinfo id="veh233" depart="136.00" departLane="gneE0_0" departPos="5.10" departSpeed="0.00" departDelay="106.00" arrival="215.00" arrivalLane="gneE2_2" arrivalPos="405.29" arrivalSpeed="27.64" duration="79.00" routeLength="1594.89" waitingTime="0.00" waitingCount="0" stopTime="0.00" timeLoss="21.31" rerouteNo="0" devices="tripinfo_veh233" vType="CarA" speedFactor="1.15" vaporized=""/>