<?xml version="1.0" encoding="UTF-8"?>

<!-- generated on Fri Oct 26 16:53:26 2018 by Eclipse SUMO GUI Version 1.0.0
<configuration xmlns:xsi="http://www.w3.org/2001/XMLSchema-instance" xsi:noNamespaceSchemaLocation="http://sumo.dlr.de/xsd/sumoConfiguration.xsd">

    <input>
        <net-file value="data/CustomNet.net.xml"/>
        <route-files value="data/CustomNet.rou.xml"/>
        <additional-files value="data/CustomNetAdditionals2.xml"/>
    </input>

    <output>
        <tripinfo-output value="tripinfo.xml"/>
    </output>

    <processing>
        <time-to-teleport value="-1"/>
    </processing>

    <traci_server>
        <remote-port value="52936"/>
    </traci_server>

</configuration>
-->

<tripinfos xmlns:xsi="http://www.w3.org/2001/XMLSchema-instance" xsi:noNamespaceSchemaLocation="http://sumo.dlr.de/xsd/tripinfo_file.xsd">
    <tripinfo id="veh52" depart="16.00" departLane="gneE16_0" departPos="5.10" departSpeed="0.00" departDelay="16.00" arrival="58.00" arrivalLane="gneE63_0" arrivalPos="92.80" arrivalSpeed="16.60" duration="42.00" routeLength="394.15" waitingTime="0.00" waitingCount="0" stopTime="0.00" timeLoss="16.87" rerouteNo="0" devices="tripinfo_veh52" vType="CarA" speedFactor="1.02" vaporized=""/>
    <tripinfo id="veh53" depart="21.00" departLane="gneE16_0" departPos="5.10" departSpeed="0.00" departDelay="21.00" arrival="79.00" arrivalLane="gneE66_0" arrivalPos="96.80" arrivalSpeed="13.14" duration="58.00" routeLength="490.12" waitingTime="0.00" waitingCount="0" stopTime="0.00" timeLoss="25.64" rerouteNo="0" devices="tripinfo_veh53" vType="CarA" speedFactor="1.10" vaporized=""/>
    <tripinfo id="veh84" depart="30.00" departLane="gneE7_0" departPos="5.10" departSpeed="0.00" departDelay="30.00" arrival="81.00" arrivalLane="gneE45_0" arrivalPos="89.60" arrivalSpeed="13.96" duration="51.00" routeLength="494.65" waitingTime="0.00" waitingCount="0" stopTime="0.00" timeLoss="19.31" rerouteNo="0" devices="tripinfo_veh84" vType="CarA" speedFactor="1.15" vaporized=""/>
    <tripinfo id="veh119" depart="41.00" departLane="gneE16_0" departPos="5.10" departSpeed="0.00" departDelay="41.00" arrival="101.00" arrivalLane="gneE66_0" arrivalPos="96.80" arrivalSpeed="12.41" duration="60.00" routeLength="490.12" waitingTime="0.00" waitingCount="0" stopTime="0.00" timeLoss="28.37" rerouteNo="0" devices="tripinfo_veh119" vType="CarA" speedFactor="1.07" vaporized=""/>
    <tripinfo id="veh152" depart="55.00" departLane="gneE7_0" departPos="5.10" departSpeed="0.00" departDelay="55.00" arrival="106.00" arrivalLane="gneE43_0" arrivalPos="89.60" arrivalSpeed="13.91" duration="51.00" routeLength="496.09" waitingTime="0.00" waitingCount="0" stopTime="0.00" timeLoss="20.28" rerouteNo="0" devices="tripinfo_veh152" vType="CarA" speedFactor="1.07" vaporized=""/>
    <tripinfo id="veh85" depart="35.00" departLane="gneE7_0" departPos="5.10" departSpeed="0.00" departDelay="35.00" arrival="107.00" arrivalLane="gneE41_0" arrivalPos="89.60" arrivalSpeed="12.04" duration="72.00" routeLength="675.25" waitingTime="0.00" waitingCount="0" stopTime="0.00" timeLoss="27.98" rerouteNo="0" devices="tripinfo_veh85" vType="CarA" speedFactor="0.98" vaporized=""/>
    <tripinfo id="veh0" depart="0.00" departLane="gneE0_0" departPos="5.10" departSpeed="0.00" departDelay="0.00" arrival="111.00" arrivalLane="gneE2_0" arrivalPos="405.29" arrivalSpeed="16.46" duration="111.00" routeLength="1594.89" waitingTime="0.00" waitingCount="0" stopTime="0.00" timeLoss="14.53" rerouteNo="0" devices="tripinfo_veh0" vType="CarA" speedFactor="1.06" vaporized=""/>
    <tripinfo id="veh17" depart="5.00" departLane="gneE0_0" departPos="5.10" departSpeed="0.00" departDelay="5.00" arrival="115.00" arrivalLane="gneE2_0" arrivalPos="405.29" arrivalSpeed="16.35" duration="110.00" routeLength="1594.89" waitingTime="0.00" waitingCount="0" stopTime="0.00" timeLoss="14.30" rerouteNo="0" devices="tripinfo_veh17" vType="CarA" speedFactor="0.94" vaporized=""/>
    <tripinfo id="veh80" depart="10.00" departLane="gneE7_0" departPos="5.10" departSpeed="0.00" departDelay="10.00" arrival="119.00" arrivalLane="gneE57_0" arrivalPos="92.80" arrivalSpeed="16.46" duration="109.00" routeLength="383.56" waitingTime="56.00" waitingCount="1" stopTime="0.00" timeLoss="84.37" rerouteNo="0" devices="tripinfo_veh80" vType="CarA" speedFactor="1.03" vaporized=""/>
    <tripinfo id="veh120" depart="46.00" departLane="gneE16_0" departPos="5.10" departSpeed="0.00" departDelay="46.00" arrival="126.00" arrivalLane="gneE73_0" arrivalPos="92.80" arrivalSpeed="16.12" duration="80.00" routeLength="596.09" waitingTime="13.00" waitingCount="1" stopTime="0.00" timeLoss="42.58" rerouteNo="0" devices="tripinfo_veh120" vType="CarA" speedFactor="0.94" vaporized=""/>
    <tripinfo id="veh50" depart="10.00" departLane="gneE71_0" departPos="5.10" departSpeed="0.00" departDelay="10.00" arrival="129.00" arrivalLane="gneE6_0" arrivalPos="192.80" arrivalSpeed="16.02" duration="119.00" routeLength="482.30" waitingTime="40.00" waitingCount="2" stopTime="0.00" timeLoss="87.03" rerouteNo="0" devices="tripinfo_veh50" vType="CarA" speedFactor="0.85" vaporized=""/>
    <tripinfo id="veh81" depart="15.00" departLane="gneE7_0" departPos="5.10" departSpeed="0.00" departDelay="15.00" arrival="137.00" arrivalLane="gneE60_0" arrivalPos="96.80" arrivalSpeed="12.50" duration="122.00" routeLength="475.90" waitingTime="53.00" waitingCount="1" stopTime="0.00" timeLoss="90.78" rerouteNo="0" devices="tripinfo_veh81" vType="CarA" speedFactor="1.00" vaporized=""/>
    <tripinfo id="veh124" depart="35.00" departLane="gneE48_0" departPos="5.10" departSpeed="0.00" departDelay="35.00" arrival="144.00" arrivalLane="gneE57_0" arrivalPos="92.80" arrivalSpeed="16.31" duration="109.00" routeLength="595.77" waitingTime="38.00" waitingCount="1" stopTime="0.00" timeLoss="71.23" rerouteNo="0" devices="tripinfo_veh124" vType="CarA" speedFactor="1.06" vaporized=""/>
    <tripinfo id="veh87" depart="10.00" departLane="gneE40_0" departPos="5.10" departSpeed="0.00" departDelay="10.00" arrival="147.00" arrivalLane="gneE6_0" arrivalPos="192.80" arrivalSpeed="15.55" duration="137.00" routeLength="687.02" waitingTime="49.00" waitingCount="2" stopTime="0.00" timeLoss="94.59" rerouteNo="0" devices="tripinfo_veh87" vType="CarA" speedFactor="1.04" vaporized=""/>
    <tripinfo id="veh90" depart="25.00" departLane="gneE40_0" departPos="5.10" departSpeed="0.00" departDelay="25.00" arrival="149.00" arrivalLane="gneE63_0" arrivalPos="92.80" arrivalSpeed="16.23" duration="124.00" routeLength="678.45" waitingTime="37.00" waitingCount="2" stopTime="0.00" timeLoss="79.64" rerouteNo="0" devices="tripinfo_veh90" vType="CarA" speedFactor="1.02" vaporized=""/>
    <tripinfo id="veh22" depart="15.00" departLane="gneE0_0" departPos="5.10" departSpeed="0.00" departDelay="15.00" arrival="154.00" arrivalLane="gneE73_0" arrivalPos="92.80" arrivalSpeed="15.59" duration="139.00" routeLength="1054.42" waitingTime="40.00" waitingCount="1" stopTime="0.00" timeLoss="74.01" rerouteNo="0" devices="tripinfo_veh22" vType="CarA" speedFactor="0.98" vaporized=""/>
    <tripinfo id="veh30" depart="6.00" departLane="gneE84_0" departPos="5.10" departSpeed="0.00" departDelay="6.00" arrival="168.00" arrivalLane="gneE2_1" arrivalPos="405.29" arrivalSpeed="16.56" duration="162.00" routeLength="1459.37" waitingTime="39.00" waitingCount="1" stopTime="0.00" timeLoss="72.70" rerouteNo="0" devices="tripinfo_veh30" vType="CarA" speedFactor="1.18" vaporized=""/>
    <tripinfo id="veh3" depart="0.00" departLane="gneE84_0" departPos="5.10" departSpeed="0.00" departDelay="0.00" arrival="168.00" arrivalLane="gneE2_0" arrivalPos="405.29" arrivalSpeed="16.69" duration="168.00" routeLength="1459.37" waitingTime="42.00" waitingCount="1" stopTime="0.00" timeLoss="78.62" rerouteNo="0" devices="tripinfo_veh3" vType="CarA" speedFactor="1.08" vaporized=""/>
    <tripinfo id="veh27" depart="41.00" departLane="gneE0_0" departPos="5.10" departSpeed="0.00" departDelay="41.00" arrival="170.00" arrivalLane="gneE41_0" arrivalPos="89.60" arrivalSpeed="11.13" duration="129.00" routeLength="1167.38" waitingTime="16.00" waitingCount="1" stopTime="0.00" timeLoss="57.13" rerouteNo="0" devices="tripinfo_veh27" vType="CarA" speedFactor="0.95" vaporized=""/>
    <tripinfo id="veh153" depart="60.00" departLane="gneE7_0" departPos="5.10" departSpeed="0.00" departDelay="60.00" arrival="172.00" arrivalLane="gneE39_0" arrivalPos="89.60" arrivalSpeed="16.67" duration="112.00" routeLength="684.61" waitingTime="32.00" waitingCount="1" stopTime="0.00" timeLoss="68.43" rerouteNo="0" devices="tripinfo_veh153" vType="CarA" speedFactor="0.93" vaporized=""/>
    <tripinfo id="veh43" depart="5.00" departLane="gneE67_0" departPos="5.10" departSpeed="0.00" departDelay="5.00" arrival="174.00" arrivalLane="gneE6_0" arrivalPos="192.80" arrivalSpeed="15.88" duration="169.00" routeLength="482.30" waitingTime="93.00" waitingCount="2" stopTime="0.00" timeLoss="137.89" rerouteNo="0" devices="tripinfo_veh43" vType="CarA" speedFactor="1.04" vaporized=""/>
    <tripinfo id="veh23" depart="21.00" departLane="gneE0_0" departPos="5.10" departSpeed="0.00" departDelay="21.00" arrival="174.00" arrivalLane="gneE85_0" arrivalPos="96.80" arrivalSpeed="12.24" duration="153.00" routeLength="1147.19" waitingTime="34.00" waitingCount="1" stopTime="0.00" timeLoss="79.80" rerouteNo="0" devices="tripinfo_veh23" vType="CarA" speedFactor="0.89" vaporized=""/>
    <tripinfo id="veh4" depart="0.00" departLane="gneE86_0" departPos="5.10" departSpeed="0.00" departDelay="0.00" arrival="178.00" arrivalLane="gneE2_0" arrivalPos="405.29" arrivalSpeed="16.53" duration="178.00" routeLength="1554.80" waitingTime="25.00" waitingCount="1" stopTime="0.00" timeLoss="81.75" rerouteNo="0" devices="tripinfo_veh4" vType="CarA" speedFactor="1.03" vaporized=""/>
    <tripinfo id="veh55" depart="31.00" departLane="gneE16_0" departPos="5.10" departSpeed="0.00" departDelay="31.00" arrival="178.00" arrivalLane="gneE41_0" arrivalPos="89.60" arrivalSpeed="13.24" duration="147.00" routeLength="683.13" waitingTime="67.00" waitingCount="1" stopTime="0.00" timeLoss="105.18" rerouteNo="0" devices="tripinfo_veh55" vType="CarA" speedFactor="1.00" vaporized=""/>
    <tripinfo id="veh24" depart="26.00" departLane="gneE0_0" departPos="5.10" departSpeed="0.00" departDelay="26.00" arrival="179.00" arrivalLane="gneE63_0" arrivalPos="92.80" arrivalSpeed="16.33" duration="153.00" routeLength="1257.78" waitingTime="27.00" waitingCount="1" stopTime="0.00" timeLoss="75.81" rerouteNo="0" devices="tripinfo_veh24" vType="CarA" speedFactor="0.83" vaporized=""/>
    <tripinfo id="veh36" depart="5.00" departLane="gneE86_0" departPos="5.10" departSpeed="0.00" departDelay="5.00" arrival="182.00" arrivalLane="gneE2_0" arrivalPos="405.29" arrivalSpeed="16.62" duration="177.00" routeLength="1554.80" waitingTime="23.00" waitingCount="1" stopTime="0.00" timeLoss="80.52" rerouteNo="0" devices="tripinfo_veh36" vType="CarA" speedFactor="0.97" vaporized=""/>
    <tripinfo id="veh31" depart="11.00" departLane="gneE84_0" departPos="5.10" departSpeed="0.00" departDelay="11.00" arrival="184.00" arrivalLane="gneE47_0" arrivalPos="92.80" arrivalSpeed="15.92" duration="173.00" routeLength="1171.80" waitingTime="44.00" waitingCount="3" stopTime="0.00" timeLoss="100.41" rerouteNo="0" devices="tripinfo_veh31" vType="CarA" speedFactor="1.15" vaporized=""/>
    <tripinfo id="veh94" depart="10.00" departLane="gneE46_0" departPos="5.10" departSpeed="0.00" departDelay="10.00" arrival="186.00" arrivalLane="gneE57_0" arrivalPos="92.80" arrivalSpeed="16.63" duration="176.00" routeLength="486.42" waitingTime="114.00" waitingCount="1" stopTime="0.00" timeLoss="145.60" rerouteNo="0" devices="tripinfo_veh94" vType="CarA" speedFactor="1.09" vaporized=""/>
    <tripinfo id="veh96" depart="10.00" departLane="gneE44_0" departPos="5.10" departSpeed="0.00" departDelay="10.00" arrival="188.00" arrivalLane="gneE21_0" arrivalPos="189.60" arrivalSpeed="15.69" duration="178.00" routeLength="483.13" waitingTime="99.00" waitingCount="3" stopTime="0.00" timeLoss="148.25" rerouteNo="0" devices="tripinfo_veh96" vType="CarA" speedFactor="1.01" vaporized=""/>
    <tripinfo id="veh157" depart="15.00" departLane="gneE46_0" departPos="5.10" departSpeed="0.00" departDelay="15.00" arrival="188.00" arrivalLane="gneE57_0" arrivalPos="92.80" arrivalSpeed="15.63" duration="173.00" routeLength="486.42" waitingTime="111.00" waitingCount="1" stopTime="0.00" timeLoss="142.69" rerouteNo="0" devices="tripinfo_veh157" vType="CarA" speedFactor="1.08" vaporized=""/>
    <tripinfo id="veh100" depart="56.00" departLane="gneE0_0" departPos="5.10" departSpeed="0.00" departDelay="56.00" arrival="189.00" arrivalLane="gneE2_0" arrivalPos="405.29" arrivalSpeed="16.45" duration="133.00" routeLength="1746.26" waitingTime="0.00" waitingCount="0" stopTime="0.00" timeLoss="26.58" rerouteNo="0" devices="tripinfo_veh100" vType="CarA" speedFactor="1.07" vaporized=""/>
    <tripinfo id="veh93" depart="5.00" departLane="gneE46_0" departPos="5.10" departSpeed="0.00" departDelay="5.00" arrival="189.00" arrivalLane="gneE73_0" arrivalPos="92.80" arrivalSpeed="16.32" duration="184.00" routeLength="693.61" waitingTime="101.00" waitingCount="1" stopTime="0.00" timeLoss="140.73" rerouteNo="0" devices="tripinfo_veh93" vType="CarA" speedFactor="0.92" vaporized=""/>
    <tripinfo id="veh88" depart="15.00" departLane="gneE40_0" departPos="5.10" departSpeed="0.00" departDelay="15.00" arrival="190.00" arrivalLane="gneE21_0" arrivalPos="189.60" arrivalSpeed="16.15" duration="175.00" routeLength="681.68" waitingTime="86.00" waitingCount="2" stopTime="0.00" timeLoss="132.70" rerouteNo="0" devices="tripinfo_veh88" vType="CarA" speedFactor="1.01" vaporized=""/>
    <tripinfo id="veh99" depart="26.00" departLane="gneE44_0" departPos="5.10" departSpeed="0.00" departDelay="26.00" arrival="193.00" arrivalLane="gneE57_0" arrivalPos="92.80" arrivalSpeed="16.62" duration="167.00" routeLength="495.49" waitingTime="85.00" waitingCount="3" stopTime="0.00" timeLoss="136.44" rerouteNo="0" devices="tripinfo_veh99" vType="CarA" speedFactor="1.10" vaporized=""/>
    <tripinfo id="veh89" depart="20.00" departLane="gneE40_0" departPos="5.10" departSpeed="0.00" departDelay="20.00" arrival="193.00" arrivalLane="gneE73_0" arrivalPos="92.80" arrivalSpeed="16.22" duration="173.00" routeLength="485.99" waitingTime="102.00" waitingCount="2" stopTime="0.00" timeLoss="142.97" rerouteNo="0" devices="tripinfo_veh89" vType="CarA" speedFactor="1.02" vaporized=""/>
    <tripinfo id="veh161" depart="41.00" departLane="gneE44_0" departPos="5.10" departSpeed="0.00" departDelay="41.00" arrival="194.00" arrivalLane="gneE21_0" arrivalPos="189.60" arrivalSpeed="16.15" duration="153.00" routeLength="483.13" waitingTime="73.00" waitingCount="2" stopTime="0.00" timeLoss="123.42" rerouteNo="0" devices="tripinfo_veh161" vType="CarA" speedFactor="1.08" vaporized=""/>
    <tripinfo id="veh37" depart="10.00" departLane="gneE86_0" departPos="5.10" departSpeed="0.00" departDelay="10.00" arrival="194.00" arrivalLane="gneE47_0" arrivalPos="92.80" arrivalSpeed="13.05" duration="184.00" routeLength="1267.23" waitingTime="23.00" waitingCount="2" stopTime="0.00" timeLoss="104.69" rerouteNo="0" devices="tripinfo_veh37" vType="CarA" speedFactor="1.18" vaporized=""/>
    <tripinfo id="veh29" depart="51.00" departLane="gneE0_0" departPos="5.10" departSpeed="0.00" departDelay="51.00" arrival="196.00" arrivalLane="gneE47_0" arrivalPos="92.80" arrivalSpeed="12.82" duration="145.00" routeLength="1458.69" waitingTime="3.00" waitingCount="1" stopTime="0.00" timeLoss="54.37" rerouteNo="0" devices="tripinfo_veh29" vType="CarA" speedFactor="0.93" vaporized=""/>
    <tripinfo id="veh97" depart="16.00" departLane="gneE44_0" departPos="5.10" departSpeed="0.00" departDelay="16.00" arrival="197.00" arrivalLane="gneE73_0" arrivalPos="92.80" arrivalSpeed="16.44" duration="181.00" routeLength="692.16" waitingTime="85.00" waitingCount="2" stopTime="0.00" timeLoss="136.72" rerouteNo="0" devices="tripinfo_veh97" vType="CarA" speedFactor="0.91" vaporized=""/>
    <tripinfo id="veh25" depart="31.00" departLane="gneE0_0" departPos="5.10" departSpeed="0.00" departDelay="31.00" arrival="200.00" arrivalLane="gneE66_0" arrivalPos="96.80" arrivalSpeed="11.67" duration="169.00" routeLength="1353.75" waitingTime="17.00" waitingCount="1" stopTime="0.00" timeLoss="84.69" rerouteNo="0" devices="tripinfo_veh25" vType="CarA" speedFactor="0.87" vaporized=""/>
    <tripinfo id="veh26" depart="36.00" departLane="gneE0_0" departPos="5.10" departSpeed="0.00" departDelay="36.00" arrival="202.00" arrivalLane="gneE70_0" arrivalPos="96.80" arrivalSpeed="11.84" duration="166.00" routeLength="1353.75" waitingTime="15.00" waitingCount="1" stopTime="0.00" timeLoss="81.28" rerouteNo="0" devices="tripinfo_veh26" vType="CarA" speedFactor="0.92" vaporized=""/>
    <tripinfo id="veh108" depart="36.00" departLane="gneE84_0" departPos="5.10" departSpeed="0.00" departDelay="36.00" arrival="203.00" arrivalLane="gneE6_1" arrivalPos="192.80" arrivalSpeed="16.34" duration="167.00" routeLength="583.13" waitingTime="102.00" waitingCount="1" stopTime="0.00" timeLoss="131.35" rerouteNo="0" devices="tripinfo_veh108" vType="CarA" speedFactor="1.06" vaporized=""/>
    <tripinfo id="veh32" depart="16.00" departLane="gneE84_0" departPos="5.10" departSpeed="0.00" departDelay="16.00" arrival="206.00" arrivalLane="gneE50_0" arrivalPos="96.80" arrivalSpeed="11.62" duration="190.00" routeLength="1267.77" waitingTime="37.00" waitingCount="2" stopTime="0.00" timeLoss="108.72" rerouteNo="0" devices="tripinfo_veh32" vType="CarA" speedFactor="1.01" vaporized=""/>
    <tripinfo id="veh162" depart="96.00" departLane="gneE0_0" departPos="5.10" departSpeed="0.00" departDelay="86.00" arrival="207.00" arrivalLane="gneE2_0" arrivalPos="405.29" arrivalSpeed="16.67" duration="111.00" routeLength="1594.89" waitingTime="0.00" waitingCount="0" stopTime="0.00" timeLoss="15.06" rerouteNo="0" devices="tripinfo_veh162" vType="CarA" speedFactor="0.99" vaporized=""/>
    <tripinfo id="veh101" depart="61.00" departLane="gneE0_0" departPos="5.10" departSpeed="0.00" departDelay="61.00" arrival="208.00" arrivalLane="gneE6_0" arrivalPos="192.80" arrivalSpeed="16.08" duration="147.00" routeLength="1266.35" waitingTime="17.00" waitingCount="2" stopTime="0.00" timeLoss="70.77" rerouteNo="0" devices="tripinfo_veh101" vType="CarA" speedFactor="0.96" vaporized=""/>
    <tripinfo id="veh165" depart="102.00" departLane="gneE0_0" departPos="5.10" departSpeed="0.00" departDelay="82.00" arrival="213.00" arrivalLane="gneE2_0" arrivalPos="405.29" arrivalSpeed="16.55" duration="111.00" routeLength="1594.89" waitingTime="0.00" waitingCount="0" stopTime="0.00" timeLoss="15.09" rerouteNo="0" devices="tripinfo_veh165" vType="CarA" speedFactor="0.91" vaporized=""/>
    <tripinfo id="veh168" depart="107.00" departLane="gneE0_0" departPos="5.10" departSpeed="0.00" departDelay="77.00" arrival="218.00" arrivalLane="gneE2_0" arrivalPos="405.29" arrivalSpeed="16.30" duration="111.00" routeLength="1594.89" waitingTime="0.00" waitingCount="0" stopTime="0.00" timeLoss="15.02" rerouteNo="0" devices="tripinfo_veh168" vType="CarA" speedFactor="0.98" vaporized=""/>
    <tripinfo id="veh171" depart="113.00" departLane="gneE0_0" departPos="5.10" departSpeed="0.00" departDelay="73.00" arrival="223.00" arrivalLane="gneE2_0" arrivalPos="405.29" arrivalSpeed="16.46" duration="110.00" routeLength="1594.89" waitingTime="0.00" waitingCount="0" stopTime="0.00" timeLoss="14.30" rerouteNo="0" devices="tripinfo_veh171" vType="CarA" speedFactor="0.90" vaporized=""/>
    <tripinfo id="veh54" depart="26.00" departLane="gneE16_0" departPos="5.10" departSpeed="0.00" departDelay="26.00" arrival="227.00" arrivalLane="gneE57_0" arrivalPos="92.80" arrivalSpeed="11.53" duration="201.00" routeLength="1170.50" waitingTime="71.00" waitingCount="2" stopTime="0.00" timeLoss="127.70" rerouteNo="0" devices="tripinfo_veh54" vType="CarA" speedFactor="1.00" vaporized=""/>
    <tripinfo id="veh28" depart="46.00" departLane="gneE0_0" departPos="5.10" departSpeed="0.00" departDelay="46.00" arrival="228.00" arrivalLane="gneE54_0" arrivalPos="96.80" arrivalSpeed="11.70" duration="182.00" routeLength="1749.75" waitingTime="5.00" waitingCount="1" stopTime="0.00" timeLoss="73.48" rerouteNo="0" devices="tripinfo_veh28" vType="CarA" speedFactor="1.13" vaporized=""/>
    <tripinfo id="veh174" depart="118.00" departLane="gneE0_0" departPos="5.10" departSpeed="0.00" departDelay="68.00" arrival="229.00" arrivalLane="gneE2_0" arrivalPos="405.29" arrivalSpeed="16.34" duration="111.00" routeLength="1594.89" waitingTime="0.00" waitingCount="0" stopTime="0.00" timeLoss="14.94" rerouteNo="0" devices="tripinfo_veh174" vType="CarA" speedFactor="0.96" vaporized=""/>
    <tripinfo id="veh177" depart="123.00" departLane="gneE0_0" departPos="5.10" departSpeed="0.00" departDelay="63.00" arrival="234.00" arrivalLane="gneE2_1" arrivalPos="405.29" arrivalSpeed="16.62" duration="111.00" routeLength="1594.89" waitingTime="0.00" waitingCount="0" stopTime="0.00" timeLoss="14.72" rerouteNo="0" devices="tripinfo_veh177" vType="CarA" speedFactor="1.03" vaporized=""/>
    <tripinfo id="veh40" depart="5.00" departLane="gneE64_0" departPos="5.10" departSpeed="0.00" departDelay="5.00" arrival="235.00" arrivalLane="gneE2_0" arrivalPos="405.29" arrivalSpeed="16.46" duration="230.00" routeLength="1657.59" waitingTime="83.00" waitingCount="1" stopTime="0.00" timeLoss="127.62" rerouteNo="0" devices="tripinfo_veh40" vType="CarA" speedFactor="1.03" vaporized=""/>
    <tripinfo id="veh5" depart="0.00" departLane="gneE64_0" departPos="5.10" departSpeed="0.00" departDelay="0.00" arrival="237.00" arrivalLane="gneE2_0" arrivalPos="405.29" arrivalSpeed="16.67" duration="237.00" routeLength="1657.59" waitingTime="84.00" waitingCount="1" stopTime="0.00" timeLoss="133.88" rerouteNo="0" devices="tripinfo_veh5" vType="CarA" speedFactor="0.83" vaporized=""/>
    <tripinfo id="veh67" depart="10.00" departLane="gneE58_0" departPos="5.10" departSpeed="0.00" departDelay="10.00" arrival="237.00" arrivalLane="gneE43_0" arrivalPos="89.60" arrivalSpeed="11.68" duration="227.00" routeLength="495.06" waitingTime="151.00" waitingCount="2" stopTime="0.00" timeLoss="197.10" rerouteNo="0" devices="tripinfo_veh67" vType="CarA" speedFactor="0.91" vaporized=""/>
    <tripinfo id="veh1" depart="0.00" departLane="gneE16_0" departPos="5.10" departSpeed="0.00" departDelay="0.00" arrival="239.00" arrivalLane="gneE2_0" arrivalPos="405.29" arrivalSpeed="16.61" duration="239.00" routeLength="1658.34" waitingTime="78.00" waitingCount="2" stopTime="0.00" timeLoss="137.62" rerouteNo="0" devices="tripinfo_veh1" vType="CarA" speedFactor="0.94" vaporized=""/>
    <tripinfo id="veh180" depart="128.00" departLane="gneE0_0" departPos="5.10" departSpeed="0.00" departDelay="58.00" arrival="239.00" arrivalLane="gneE2_1" arrivalPos="405.29" arrivalSpeed="16.52" duration="111.00" routeLength="1594.89" waitingTime="0.00" waitingCount="0" stopTime="0.00" timeLoss="14.64" rerouteNo="0" devices="tripinfo_veh180" vType="CarA" speedFactor="1.10" vaporized=""/>
    <tripinfo id="veh21" depart="10.00" departLane="gneE16_0" departPos="5.10" departSpeed="0.00" departDelay="10.00" arrival="240.00" arrivalLane="gneE2_0" arrivalPos="405.29" arrivalSpeed="16.60" duration="230.00" routeLength="1658.34" waitingTime="70.00" waitingCount="1" stopTime="0.00" timeLoss="129.28" rerouteNo="0" devices="tripinfo_veh21" vType="CarA" speedFactor="1.01" vaporized=""/>
    <tripinfo id="veh77" depart="31.00" departLane="gneE61_0" departPos="5.10" departSpeed="0.00" departDelay="31.00" arrival="241.00" arrivalLane="gneE43_0" arrivalPos="89.60" arrivalSpeed="11.78" duration="210.00" routeLength="590.49" waitingTime="107.00" waitingCount="3" stopTime="0.00" timeLoss="173.05" rerouteNo="0" devices="tripinfo_veh77" vType="CarA" speedFactor="0.98" vaporized=""/>
    <tripinfo id="veh18" depart="5.00" departLane="gneE16_0" departPos="5.10" departSpeed="0.00" departDelay="5.00" arrival="242.00" arrivalLane="gneE2_0" arrivalPos="405.29" arrivalSpeed="16.61" duration="237.00" routeLength="1658.34" waitingTime="74.00" waitingCount="2" stopTime="0.00" timeLoss="135.23" rerouteNo="0" devices="tripinfo_veh18" vType="CarA" speedFactor="0.94" vaporized=""/>
    <tripinfo id="veh123" depart="30.00" departLane="gneE48_0" departPos="5.10" departSpeed="0.00" departDelay="30.00" arrival="243.00" arrivalLane="gneE21_0" arrivalPos="189.60" arrivalSpeed="16.65" duration="213.00" routeLength="594.31" waitingTime="128.00" waitingCount="2" stopTime="0.00" timeLoss="175.96" rerouteNo="0" devices="tripinfo_veh123" vType="CarA" speedFactor="1.02" vaporized=""/>
    <tripinfo id="veh183" depart="133.00" departLane="gneE0_0" departPos="5.10" departSpeed="0.00" departDelay="53.00" arrival="243.00" arrivalLane="gneE2_1" arrivalPos="405.29" arrivalSpeed="16.61" duration="110.00" routeLength="1594.89" waitingTime="0.00" waitingCount="0" stopTime="0.00" timeLoss="14.29" rerouteNo="0" devices="tripinfo_veh183" vType="CarA" speedFactor="1.08" vaporized=""/>
    <tripinfo id="veh103" depart="71.00" departLane="gneE0_0" departPos="5.10" departSpeed="0.00" departDelay="71.00" arrival="245.00" arrivalLane="gneE73_0" arrivalPos="92.80" arrivalSpeed="15.53" duration="174.00" routeLength="1054.42" waitingTime="69.00" waitingCount="1" stopTime="0.00" timeLoss="109.17" rerouteNo="0" devices="tripinfo_veh103" vType="CarA" speedFactor="0.95" vaporized=""/>
    <tripinfo id="veh186" depart="138.00" departLane="gneE0_0" departPos="5.10" departSpeed="0.00" departDelay="48.00" arrival="249.00" arrivalLane="gneE2_0" arrivalPos="405.29" arrivalSpeed="16.42" duration="111.00" routeLength="1594.89" waitingTime="0.00" waitingCount="0" stopTime="0.00" timeLoss="14.78" rerouteNo="0" devices="tripinfo_veh186" vType="CarA" speedFactor="1.08" vaporized=""/>
    <tripinfo id="veh61" depart="25.00" departLane="gneE48_0" departPos="5.10" departSpeed="0.00" departDelay="25.00" arrival="251.00" arrivalLane="gneE43_0" arrivalPos="89.60" arrivalSpeed="15.01" duration="226.00" routeLength="682.38" waitingTime="132.00" waitingCount="2" stopTime="0.00" timeLoss="182.90" rerouteNo="0" devices="tripinfo_veh61" vType="CarA" speedFactor="1.12" vaporized=""/>
    <tripinfo id="veh189" depart="143.00" departLane="gneE0_0" departPos="5.10" departSpeed="0.00" departDelay="43.00" arrival="253.00" arrivalLane="gneE2_0" arrivalPos="405.29" arrivalSpeed="16.40" duration="110.00" routeLength="1594.89" waitingTime="0.00" waitingCount="0" stopTime="0.00" timeLoss="13.70" rerouteNo="0" devices="tripinfo_veh189" vType="CarA" speedFactor="0.97" vaporized=""/>
    <tripinfo id="veh206" depart="148.00" departLane="gneE0_0" departPos="5.10" departSpeed="0.00" departDelay="48.00" arrival="259.00" arrivalLane="gneE2_0" arrivalPos="405.29" arrivalSpeed="16.44" duration="111.00" routeLength="1594.89" waitingTime="0.00" waitingCount="0" stopTime="0.00" timeLoss="15.01" rerouteNo="0" devices="tripinfo_veh206" vType="CarA" speedFactor="1.00" vaporized=""/>
    <tripinfo id="veh126" depart="45.00" departLane="gneE48_0" departPos="5.10" departSpeed="0.00" departDelay="45.00" arrival="260.00" arrivalLane="gneE43_0" arrivalPos="89.60" arrivalSpeed="13.02" duration="215.00" routeLength="682.38" waitingTime="115.00" waitingCount="2" stopTime="0.00" timeLoss="172.05" rerouteNo="0" devices="tripinfo_veh126" vType="CarA" speedFactor="1.03" vaporized=""/>
    <tripinfo id="veh133" depart="20.00" departLane="gneE58_0" departPos="5.10" departSpeed="0.00" departDelay="20.00" arrival="265.00" arrivalLane="gneE21_0" arrivalPos="189.60" arrivalSpeed="16.32" duration="245.00" routeLength="396.09" waitingTime="194.00" waitingCount="1" stopTime="0.00" timeLoss="219.80" rerouteNo="0" devices="tripinfo_veh133" vType="CarA" speedFactor="1.04" vaporized=""/>
    <tripinfo id="veh72" depart="5.00" departLane="gneE61_0" departPos="5.10" departSpeed="0.00" departDelay="5.00" arrival="267.00" arrivalLane="gneE21_0" arrivalPos="189.60" arrivalSpeed="16.31" duration="262.00" routeLength="491.52" waitingTime="179.00" waitingCount="2" stopTime="0.00" timeLoss="229.72" rerouteNo="0" devices="tripinfo_veh72" vType="CarA" speedFactor="0.94" vaporized=""/>
    <tripinfo id="veh82" depart="20.00" departLane="gneE7_0" departPos="5.10" departSpeed="0.00" departDelay="20.00" arrival="268.00" arrivalLane="gneE6_0" arrivalPos="192.80" arrivalSpeed="15.30" duration="248.00" routeLength="1184.06" waitingTime="118.00" waitingCount="2" stopTime="0.00" timeLoss="173.59" rerouteNo="0" devices="tripinfo_veh82" vType="CarA" speedFactor="1.02" vaporized=""/>
    <tripinfo id="veh154" depart="30.00" departLane="gneE40_0" departPos="5.10" departSpeed="0.00" departDelay="30.00" arrival="269.00" arrivalLane="gneE6_0" arrivalPos="192.80" arrivalSpeed="16.42" duration="239.00" routeLength="687.02" waitingTime="129.00" waitingCount="4" stopTime="0.00" timeLoss="195.69" rerouteNo="0" devices="tripinfo_veh154" vType="CarA" speedFactor="1.06" vaporized=""/>
    <tripinfo id="veh143" depart="47.00" departLane="gneE61_0" departPos="5.10" departSpeed="0.00" departDelay="47.00" arrival="269.00" arrivalLane="gneE21_0" arrivalPos="189.60" arrivalSpeed="16.70" duration="222.00" routeLength="491.52" waitingTime="121.00" waitingCount="3" stopTime="0.00" timeLoss="190.50" rerouteNo="0" devices="tripinfo_veh143" vType="CarA" speedFactor="1.13" vaporized=""/>
    <tripinfo id="veh56" depart="36.00" departLane="gneE16_0" departPos="5.10" departSpeed="0.00" departDelay="36.00" arrival="269.00" arrivalLane="gneE45_0" arrivalPos="89.60" arrivalSpeed="16.59" duration="233.00" routeLength="871.65" waitingTime="132.00" waitingCount="2" stopTime="0.00" timeLoss="179.37" rerouteNo="0" devices="tripinfo_veh56" vType="CarA" speedFactor="0.90" vaporized=""/>