<?xml version="1.0" encoding="UTF-8"?>

<!-- generated on Fri Oct 26 16:28:20 2018 by Eclipse SUMO GUI Version 1.0.0
<configuration xmlns:xsi="http://www.w3.org/2001/XMLSchema-instance" xsi:noNamespaceSchemaLocation="http://sumo.dlr.de/xsd/sumoConfiguration.xsd">

    <input>
        <net-file value="data/CustomNet.net.xml"/>
        <route-files value="data/CustomNet.rou.xml"/>
        <additional-files value="data/CustomNetAdditionals2.xml"/>
    </input>

    <output>
        <tripinfo-output value="tripinfo.xml"/>
    </output>

    <processing>
        <time-to-teleport value="-1"/>
    </processing>

    <traci_server>
        <remote-port value="52782"/>
    </traci_server>

</configuration>
-->

<tripinfos xmlns:xsi="http://www.w3.org/2001/XMLSchema-instance" xsi:noNamespaceSchemaLocation="http://sumo.dlr.de/xsd/tripinfo_file.xsd">
    <tripinfo id="veh80" depart="10.00" departLane="gneE7_0" departPos="5.10" departSpeed="0.00" departDelay="10.00" arrival="58.00" arrivalLane="gneE57_0" arrivalPos="92.80" arrivalSpeed="16.15" duration="48.00" routeLength="383.56" waitingTime="0.00" waitingCount="0" stopTime="0.00" timeLoss="23.78" rerouteNo="0" devices="tripinfo_veh80" vType="CarA" speedFactor="1.03" vaporized=""/>
    <tripinfo id="veh133" depart="20.00" departLane="gneE58_0" departPos="5.10" departSpeed="0.00" departDelay="20.00" arrival="60.00" arrivalLane="gneE21_0" arrivalPos="189.60" arrivalSpeed="16.50" duration="40.00" routeLength="396.09" waitingTime="0.00" waitingCount="0" stopTime="0.00" timeLoss="15.24" rerouteNo="0" devices="tripinfo_veh133" vType="CarA" speedFactor="1.04" vaporized=""/>
    <tripinfo id="veh94" depart="10.00" departLane="gneE46_0" departPos="5.10" departSpeed="0.00" departDelay="10.00" arrival="85.00" arrivalLane="gneE57_0" arrivalPos="92.80" arrivalSpeed="16.10" duration="75.00" routeLength="486.42" waitingTime="15.00" waitingCount="1" stopTime="0.00" timeLoss="44.87" rerouteNo="0" devices="tripinfo_veh94" vType="CarA" speedFactor="1.09" vaporized=""/>
    <tripinfo id="veh157" depart="15.00" departLane="gneE46_0" departPos="5.10" departSpeed="0.00" departDelay="15.00" arrival="88.00" arrivalLane="gneE57_0" arrivalPos="92.80" arrivalSpeed="16.58" duration="73.00" routeLength="486.42" waitingTime="11.00" waitingCount="1" stopTime="0.00" timeLoss="42.47" rerouteNo="0" devices="tripinfo_veh157" vType="CarA" speedFactor="1.08" vaporized=""/>
    <tripinfo id="veh96" depart="10.00" departLane="gneE44_0" departPos="5.10" departSpeed="0.00" departDelay="10.00" arrival="89.00" arrivalLane="gneE21_0" arrivalPos="189.60" arrivalSpeed="16.29" duration="79.00" routeLength="483.13" waitingTime="10.00" waitingCount="2" stopTime="0.00" timeLoss="49.41" rerouteNo="0" devices="tripinfo_veh96" vType="CarA" speedFactor="1.01" vaporized=""/>
    <tripinfo id="veh87" depart="10.00" departLane="gneE40_0" departPos="5.10" departSpeed="0.00" departDelay="10.00" arrival="89.00" arrivalLane="gneE6_0" arrivalPos="192.80" arrivalSpeed="15.56" duration="79.00" routeLength="687.02" waitingTime="1.00" waitingCount="1" stopTime="0.00" timeLoss="35.96" rerouteNo="0" devices="tripinfo_veh87" vType="CarA" speedFactor="1.04" vaporized=""/>
    <tripinfo id="veh99" depart="26.00" departLane="gneE44_0" departPos="5.10" departSpeed="0.00" departDelay="26.00" arrival="89.00" arrivalLane="gneE57_0" arrivalPos="92.80" arrivalSpeed="16.54" duration="63.00" routeLength="495.49" waitingTime="7.00" waitingCount="1" stopTime="0.00" timeLoss="33.00" rerouteNo="0" devices="tripinfo_veh99" vType="CarA" speedFactor="1.10" vaporized=""/>
    <tripinfo id="veh57" depart="5.00" departLane="gneE48_0" departPos="5.10" departSpeed="0.00" departDelay="5.00" arrival="93.00" arrivalLane="gneE2_1" arrivalPos="405.29" arrivalSpeed="16.64" duration="88.00" routeLength="1056.37" waitingTime="0.00" waitingCount="0" stopTime="0.00" timeLoss="22.68" rerouteNo="0" devices="tripinfo_veh57" vType="CarA" speedFactor="1.14" vaporized=""/>
    <tripinfo id="veh8" depart="0.00" departLane="gneE48_0" departPos="5.10" departSpeed="0.00" departDelay="0.00" arrival="93.00" arrivalLane="gneE2_0" arrivalPos="405.29" arrivalSpeed="16.63" duration="93.00" routeLength="1056.37" waitingTime="0.00" waitingCount="0" stopTime="0.00" timeLoss="28.08" rerouteNo="0" devices="tripinfo_veh8" vType="CarA" speedFactor="0.94" vaporized=""/>
    <tripinfo id="veh158" depart="20.00" departLane="gneE46_0" departPos="5.10" departSpeed="0.00" departDelay="20.00" arrival="93.00" arrivalLane="gneE47_0" arrivalPos="92.80" arrivalSpeed="15.39" duration="73.00" routeLength="678.45" waitingTime="0.00" waitingCount="0" stopTime="0.00" timeLoss="28.24" rerouteNo="0" devices="tripinfo_veh158" vType="CarA" speedFactor="0.91" vaporized=""/>
    <tripinfo id="veh52" depart="16.00" departLane="gneE16_0" departPos="5.10" departSpeed="0.00" departDelay="16.00" arrival="95.00" arrivalLane="gneE63_0" arrivalPos="92.80" arrivalSpeed="16.08" duration="79.00" routeLength="394.15" waitingTime="21.00" waitingCount="2" stopTime="0.00" timeLoss="53.77" rerouteNo="0" devices="tripinfo_veh52" vType="CarA" speedFactor="1.02" vaporized=""/>
    <tripinfo id="veh67" depart="10.00" departLane="gneE58_0" departPos="5.10" departSpeed="0.00" departDelay="10.00" arrival="102.00" arrivalLane="gneE43_0" arrivalPos="89.60" arrivalSpeed="12.61" duration="92.00" routeLength="495.06" waitingTime="24.00" waitingCount="1" stopTime="0.00" timeLoss="62.08" rerouteNo="0" devices="tripinfo_veh67" vType="CarA" speedFactor="0.91" vaporized=""/>
    <tripinfo id="veh93" depart="5.00" departLane="gneE46_0" departPos="5.10" departSpeed="0.00" departDelay="5.00" arrival="108.00" arrivalLane="gneE73_0" arrivalPos="92.80" arrivalSpeed="15.54" duration="103.00" routeLength="693.61" waitingTime="21.00" waitingCount="1" stopTime="0.00" timeLoss="60.33" rerouteNo="0" devices="tripinfo_veh93" vType="CarA" speedFactor="0.92" vaporized=""/>
    <tripinfo id="veh66" depart="5.00" departLane="gneE58_0" departPos="5.10" departSpeed="0.00" departDelay="5.00" arrival="108.00" arrivalLane="gneE47_0" arrivalPos="92.80" arrivalSpeed="15.97" duration="103.00" routeLength="574.56" waitingTime="30.00" waitingCount="1" stopTime="0.00" timeLoss="66.31" rerouteNo="0" devices="tripinfo_veh66" vType="CarA" speedFactor="0.91" vaporized=""/>
    <tripinfo id="veh50" depart="10.00" departLane="gneE71_0" departPos="5.10" departSpeed="0.00" departDelay="10.00" arrival="109.00" arrivalLane="gneE6_0" arrivalPos="192.80" arrivalSpeed="16.68" duration="99.00" routeLength="482.30" waitingTime="21.00" waitingCount="2" stopTime="0.00" timeLoss="66.59" rerouteNo="0" devices="tripinfo_veh50" vType="CarA" speedFactor="0.85" vaporized=""/>
    <tripinfo id="veh124" depart="35.00" departLane="gneE48_0" departPos="5.10" departSpeed="0.00" departDelay="35.00" arrival="110.00" arrivalLane="gneE57_0" arrivalPos="92.80" arrivalSpeed="16.60" duration="75.00" routeLength="595.77" waitingTime="6.00" waitingCount="1" stopTime="0.00" timeLoss="36.98" rerouteNo="0" devices="tripinfo_veh124" vType="CarA" speedFactor="1.06" vaporized=""/>
    <tripinfo id="veh0" depart="0.00" departLane="gneE0_0" departPos="5.10" departSpeed="0.00" departDelay="0.00" arrival="111.00" arrivalLane="gneE2_0" arrivalPos="405.29" arrivalSpeed="16.39" duration="111.00" routeLength="1594.89" waitingTime="0.00" waitingCount="0" stopTime="0.00" timeLoss="14.64" rerouteNo="0" devices="tripinfo_veh0" vType="CarA" speedFactor="1.06" vaporized=""/>
    <tripinfo id="veh53" depart="21.00" departLane="gneE16_0" departPos="5.10" departSpeed="0.00" departDelay="21.00" arrival="111.00" arrivalLane="gneE66_0" arrivalPos="96.80" arrivalSpeed="12.46" duration="90.00" routeLength="490.12" waitingTime="18.00" waitingCount="2" stopTime="0.00" timeLoss="58.52" rerouteNo="0" devices="tripinfo_veh53" vType="CarA" speedFactor="1.10" vaporized=""/>
    <tripinfo id="veh89" depart="20.00" departLane="gneE40_0" departPos="5.10" departSpeed="0.00" departDelay="20.00" arrival="111.00" arrivalLane="gneE73_0" arrivalPos="92.80" arrivalSpeed="16.44" duration="91.00" routeLength="485.99" waitingTime="21.00" waitingCount="2" stopTime="0.00" timeLoss="60.83" rerouteNo="0" devices="tripinfo_veh89" vType="CarA" speedFactor="1.02" vaporized=""/>
    <tripinfo id="veh119" depart="41.00" departLane="gneE16_0" departPos="5.10" departSpeed="0.00" departDelay="41.00" arrival="114.00" arrivalLane="gneE66_0" arrivalPos="96.80" arrivalSpeed="12.08" duration="73.00" routeLength="490.12" waitingTime="1.00" waitingCount="1" stopTime="0.00" timeLoss="40.81" rerouteNo="0" devices="tripinfo_veh119" vType="CarA" speedFactor="1.07" vaporized=""/>
    <tripinfo id="veh17" depart="5.00" departLane="gneE0_0" departPos="5.10" departSpeed="0.00" departDelay="5.00" arrival="115.00" arrivalLane="gneE2_0" arrivalPos="405.29" arrivalSpeed="16.41" duration="110.00" routeLength="1594.89" waitingTime="0.00" waitingCount="0" stopTime="0.00" timeLoss="14.27" rerouteNo="0" devices="tripinfo_veh17" vType="CarA" speedFactor="0.94" vaporized=""/>
    <tripinfo id="veh97" depart="16.00" departLane="gneE44_0" departPos="5.10" departSpeed="0.00" departDelay="16.00" arrival="116.00" arrivalLane="gneE73_0" arrivalPos="92.80" arrivalSpeed="16.55" duration="100.00" routeLength="692.16" waitingTime="8.00" waitingCount="1" stopTime="0.00" timeLoss="55.51" rerouteNo="0" devices="tripinfo_veh97" vType="CarA" speedFactor="0.91" vaporized=""/>
    <tripinfo id="veh84" depart="30.00" departLane="gneE7_0" departPos="5.10" departSpeed="0.00" departDelay="30.00" arrival="119.00" arrivalLane="gneE45_0" arrivalPos="89.60" arrivalSpeed="14.03" duration="89.00" routeLength="494.65" waitingTime="26.00" waitingCount="1" stopTime="0.00" timeLoss="57.77" rerouteNo="0" devices="tripinfo_veh84" vType="CarA" speedFactor="1.15" vaporized=""/>
    <tripinfo id="veh108" depart="36.00" departLane="gneE84_0" departPos="5.10" departSpeed="0.00" departDelay="36.00" arrival="123.00" arrivalLane="gneE6_0" arrivalPos="192.80" arrivalSpeed="16.38" duration="87.00" routeLength="583.13" waitingTime="21.00" waitingCount="1" stopTime="0.00" timeLoss="50.42" rerouteNo="0" devices="tripinfo_veh108" vType="CarA" speedFactor="1.06" vaporized=""/>
    <tripinfo id="veh137" depart="41.00" departLane="gneE58_0" departPos="5.10" departSpeed="0.00" departDelay="41.00" arrival="124.00" arrivalLane="gneE39_0" arrivalPos="89.60" arrivalSpeed="16.34" duration="83.00" routeLength="683.58" waitingTime="1.00" waitingCount="1" stopTime="0.00" timeLoss="40.63" rerouteNo="0" devices="tripinfo_veh137" vType="CarA" speedFactor="1.02" vaporized=""/>
    <tripinfo id="veh13" depart="0.00" departLane="gneE40_0" departPos="5.10" departSpeed="0.00" departDelay="0.00" arrival="125.00" arrivalLane="gneE2_0" arrivalPos="405.29" arrivalSpeed="16.67" duration="125.00" routeLength="1537.34" waitingTime="0.00" waitingCount="0" stopTime="0.00" timeLoss="30.62" rerouteNo="0" devices="tripinfo_veh13" vType="CarA" speedFactor="1.12" vaporized=""/>
    <tripinfo id="veh22" depart="15.00" departLane="gneE0_0" departPos="5.10" departSpeed="0.00" departDelay="15.00" arrival="128.00" arrivalLane="gneE73_0" arrivalPos="92.80" arrivalSpeed="16.01" duration="113.00" routeLength="1054.42" waitingTime="10.00" waitingCount="1" stopTime="0.00" timeLoss="47.58" rerouteNo="0" devices="tripinfo_veh22" vType="CarA" speedFactor="0.98" vaporized=""/>
    <tripinfo id="veh85" depart="35.00" departLane="gneE7_0" departPos="5.10" departSpeed="0.00" departDelay="35.00" arrival="140.00" arrivalLane="gneE41_0" arrivalPos="89.60" arrivalSpeed="12.72" duration="105.00" routeLength="675.25" waitingTime="22.00" waitingCount="1" stopTime="0.00" timeLoss="61.79" rerouteNo="0" devices="tripinfo_veh85" vType="CarA" speedFactor="0.98" vaporized=""/>
    <tripinfo id="veh23" depart="21.00" departLane="gneE0_0" departPos="5.10" departSpeed="0.00" departDelay="21.00" arrival="146.00" arrivalLane="gneE85_0" arrivalPos="96.80" arrivalSpeed="11.22" duration="125.00" routeLength="1147.19" waitingTime="4.00" waitingCount="1" stopTime="0.00" timeLoss="52.22" rerouteNo="0" devices="tripinfo_veh23" vType="CarA" speedFactor="0.89" vaporized=""/>
    <tripinfo id="veh153" depart="60.00" departLane="gneE7_0" departPos="5.10" departSpeed="0.00" departDelay="60.00" arrival="146.00" arrivalLane="gneE39_0" arrivalPos="89.60" arrivalSpeed="16.45" duration="86.00" routeLength="684.61" waitingTime="6.00" waitingCount="1" stopTime="0.00" timeLoss="42.50" rerouteNo="0" devices="tripinfo_veh153" vType="CarA" speedFactor="0.93" vaporized=""/>
    <tripinfo id="veh43" depart="5.00" departLane="gneE67_0" departPos="5.10" departSpeed="0.00" departDelay="5.00" arrival="148.00" arrivalLane="gneE6_0" arrivalPos="192.80" arrivalSpeed="16.09" duration="143.00" routeLength="482.30" waitingTime="55.00" waitingCount="3" stopTime="0.00" timeLoss="111.05" rerouteNo="0" devices="tripinfo_veh43" vType="CarA" speedFactor="1.04" vaporized=""/>
    <tripinfo id="veh24" depart="26.00" departLane="gneE0_0" departPos="5.10" departSpeed="0.00" departDelay="26.00" arrival="148.00" arrivalLane="gneE63_0" arrivalPos="92.80" arrivalSpeed="15.31" duration="122.00" routeLength="1257.78" waitingTime="4.00" waitingCount="1" stopTime="0.00" timeLoss="45.37" rerouteNo="0" devices="tripinfo_veh24" vType="CarA" speedFactor="0.83" vaporized=""/>
    <tripinfo id="veh152" depart="55.00" departLane="gneE7_0" departPos="5.10" departSpeed="0.00" departDelay="55.00" arrival="153.00" arrivalLane="gneE43_0" arrivalPos="89.60" arrivalSpeed="11.62" duration="98.00" routeLength="496.09" waitingTime="23.00" waitingCount="2" stopTime="0.00" timeLoss="67.67" rerouteNo="0" devices="tripinfo_veh152" vType="CarA" speedFactor="1.07" vaporized=""/>
    <tripinfo id="veh120" depart="46.00" departLane="gneE16_0" departPos="5.10" departSpeed="0.00" departDelay="46.00" arrival="156.00" arrivalLane="gneE73_0" arrivalPos="92.80" arrivalSpeed="15.98" duration="110.00" routeLength="596.09" waitingTime="22.00" waitingCount="2" stopTime="0.00" timeLoss="72.64" rerouteNo="0" devices="tripinfo_veh120" vType="CarA" speedFactor="0.94" vaporized=""/>
    <tripinfo id="veh19" depart="5.00" departLane="gneE7_0" departPos="5.10" departSpeed="0.00" departDelay="5.00" arrival="161.00" arrivalLane="gneE2_0" arrivalPos="405.29" arrivalSpeed="16.46" duration="156.00" routeLength="1265.10" waitingTime="31.00" waitingCount="1" stopTime="0.00" timeLoss="78.61" rerouteNo="0" devices="tripinfo_veh19" vType="CarA" speedFactor="1.16" vaporized=""/>
    <tripinfo id="veh2" depart="0.00" departLane="gneE7_0" departPos="5.10" departSpeed="0.00" departDelay="0.00" arrival="163.00" arrivalLane="gneE2_0" arrivalPos="405.29" arrivalSpeed="16.60" duration="163.00" routeLength="1265.10" waitingTime="35.00" waitingCount="2" stopTime="0.00" timeLoss="85.97" rerouteNo="0" devices="tripinfo_veh2" vType="CarA" speedFactor="1.01" vaporized=""/>
    <tripinfo id="veh10" depart="0.00" departLane="gneE58_0" departPos="5.10" departSpeed="0.00" departDelay="0.00" arrival="163.00" arrivalLane="gneE2_1" arrivalPos="405.29" arrivalSpeed="16.62" duration="163.00" routeLength="1253.17" waitingTime="39.00" waitingCount="2" stopTime="0.00" timeLoss="85.96" rerouteNo="0" devices="tripinfo_veh10" vType="CarA" speedFactor="1.09" vaporized=""/>
    <tripinfo id="veh86" depart="5.00" departLane="gneE40_0" departPos="5.10" departSpeed="0.00" departDelay="5.00" arrival="166.00" arrivalLane="gneE2_0" arrivalPos="405.29" arrivalSpeed="16.54" duration="161.00" routeLength="1564.68" waitingTime="7.00" waitingCount="1" stopTime="0.00" timeLoss="64.37" rerouteNo="0" devices="tripinfo_veh86" vType="CarA" speedFactor="1.00" vaporized=""/>
    <tripinfo id="veh132" depart="15.00" departLane="gneE58_0" departPos="5.10" departSpeed="0.00" departDelay="15.00" arrival="166.00" arrivalLane="gneE2_1" arrivalPos="405.29" arrivalSpeed="16.44" duration="151.00" routeLength="1253.17" waitingTime="24.00" waitingCount="2" stopTime="0.00" timeLoss="74.50" rerouteNo="0" devices="tripinfo_veh132" vType="CarA" speedFactor="0.96" vaporized=""/>
    <tripinfo id="veh25" depart="31.00" departLane="gneE0_0" departPos="5.10" departSpeed="0.00" departDelay="31.00" arrival="168.00" arrivalLane="gneE66_0" arrivalPos="96.80" arrivalSpeed="12.12" duration="137.00" routeLength="1353.75" waitingTime="0.00" waitingCount="0" stopTime="0.00" timeLoss="53.60" rerouteNo="0" devices="tripinfo_veh25" vType="CarA" speedFactor="0.87" vaporized=""/>
    <tripinfo id="veh31" depart="11.00" departLane="gneE84_0" departPos="5.10" departSpeed="0.00" departDelay="11.00" arrival="168.00" arrivalLane="gneE47_0" arrivalPos="92.80" arrivalSpeed="15.68" duration="157.00" routeLength="1171.80" waitingTime="23.00" waitingCount="3" stopTime="0.00" timeLoss="84.07" rerouteNo="0" devices="tripinfo_veh31" vType="CarA" speedFactor="1.15" vaporized=""/>
    <tripinfo id="veh27" depart="41.00" departLane="gneE0_0" departPos="5.10" departSpeed="0.00" departDelay="41.00" arrival="169.00" arrivalLane="gneE41_0" arrivalPos="89.60" arrivalSpeed="13.13" duration="128.00" routeLength="1167.38" waitingTime="9.00" waitingCount="1" stopTime="0.00" timeLoss="55.92" rerouteNo="0" devices="tripinfo_veh27" vType="CarA" speedFactor="0.95" vaporized=""/>
    <tripinfo id="veh63" depart="10.00" departLane="gneE51_0" departPos="5.10" departSpeed="0.00" departDelay="10.00" arrival="171.00" arrivalLane="gneE57_0" arrivalPos="92.80" arrivalSpeed="16.57" duration="161.00" routeLength="691.74" waitingTime="64.00" waitingCount="3" stopTime="0.00" timeLoss="115.64" rerouteNo="0" devices="tripinfo_veh63" vType="CarA" speedFactor="0.99" vaporized=""/>
    <tripinfo id="veh29" depart="51.00" departLane="gneE0_0" departPos="5.10" departSpeed="0.00" departDelay="51.00" arrival="175.00" arrivalLane="gneE47_0" arrivalPos="92.80" arrivalSpeed="13.27" duration="124.00" routeLength="1458.69" waitingTime="0.00" waitingCount="0" stopTime="0.00" timeLoss="34.45" rerouteNo="0" devices="tripinfo_veh29" vType="CarA" speedFactor="0.93" vaporized=""/>
    <tripinfo id="veh98" depart="21.00" departLane="gneE44_0" departPos="5.10" departSpeed="0.00" departDelay="21.00" arrival="183.00" arrivalLane="gneE63_0" arrivalPos="92.80" arrivalSpeed="15.97" duration="162.00" routeLength="884.62" waitingTime="54.00" waitingCount="2" stopTime="0.00" timeLoss="105.97" rerouteNo="0" devices="tripinfo_veh98" vType="CarA" speedFactor="1.12" vaporized=""/>
    <tripinfo id="veh161" depart="41.00" departLane="gneE44_0" departPos="5.10" departSpeed="0.00" departDelay="41.00" arrival="185.00" arrivalLane="gneE21_0" arrivalPos="189.60" arrivalSpeed="15.64" duration="144.00" routeLength="483.13" waitingTime="74.00" waitingCount="1" stopTime="0.00" timeLoss="114.03" rerouteNo="0" devices="tripinfo_veh161" vType="CarA" speedFactor="1.08" vaporized=""/>
    <tripinfo id="veh88" depart="15.00" departLane="gneE40_0" departPos="5.10" departSpeed="0.00" departDelay="15.00" arrival="187.00" arrivalLane="gneE21_0" arrivalPos="189.60" arrivalSpeed="15.97" duration="172.00" routeLength="681.68" waitingTime="83.00" waitingCount="2" stopTime="0.00" timeLoss="128.62" rerouteNo="0" devices="tripinfo_veh88" vType="CarA" speedFactor="1.01" vaporized=""/>
    <tripinfo id="veh33" depart="21.00" departLane="gneE84_0" departPos="5.10" departSpeed="0.00" departDelay="21.00" arrival="188.00" arrivalLane="gneE21_0" arrivalPos="189.60" arrivalSpeed="16.23" duration="167.00" routeLength="970.07" waitingTime="54.00" waitingCount="2" stopTime="0.00" timeLoss="106.82" rerouteNo="0" devices="tripinfo_veh33" vType="CarA" speedFactor="1.17" vaporized=""/>
    <tripinfo id="veh32" depart="16.00" departLane="gneE84_0" departPos="5.10" departSpeed="0.00" departDelay="16.00" arrival="188.00" arrivalLane="gneE50_0" arrivalPos="96.80" arrivalSpeed="11.22" duration="172.00" routeLength="1267.77" waitingTime="16.00" waitingCount="3" stopTime="0.00" timeLoss="91.08" rerouteNo="0" devices="tripinfo_veh32" vType="CarA" speedFactor="1.01" vaporized=""/>
    <tripinfo id="veh41" depart="10.00" departLane="gneE64_0" departPos="5.10" departSpeed="0.00" departDelay="10.00" arrival="194.00" arrivalLane="gneE21_0" arrivalPos="189.60" arrivalSpeed="16.47" duration="184.00" routeLength="1157.39" waitingTime="39.00" waitingCount="2" stopTime="0.00" timeLoss="111.06" rerouteNo="0" devices="tripinfo_veh41" vType="CarA" speedFactor="0.96" vaporized=""/>
    <tripinfo id="veh30" depart="6.00" departLane="gneE84_0" departPos="5.10" departSpeed="0.00" departDelay="6.00" arrival="199.00" arrivalLane="gneE2_1" arrivalPos="405.29" arrivalSpeed="16.57" duration="193.00" routeLength="1459.37" waitingTime="41.00" waitingCount="3" stopTime="0.00" timeLoss="102.94" rerouteNo="0" devices="tripinfo_veh30" vType="CarA" speedFactor="1.18" vaporized=""/>
    <tripinfo id="veh3" depart="0.00" departLane="gneE84_0" departPos="5.10" departSpeed="0.00" departDelay="0.00" arrival="199.00" arrivalLane="gneE2_0" arrivalPos="405.29" arrivalSpeed="16.39" duration="199.00" routeLength="1459.37" waitingTime="43.00" waitingCount="3" stopTime="0.00" timeLoss="109.07" rerouteNo="0" devices="tripinfo_veh3" vType="CarA" speedFactor="1.08" vaporized=""/>
    <tripinfo id="veh136" depart="36.00" departLane="gneE58_0" departPos="5.10" departSpeed="0.00" departDelay="36.00" arrival="201.00" arrivalLane="gneE43_0" arrivalPos="89.60" arrivalSpeed="13.14" duration="165.00" routeLength="495.06" waitingTime="84.00" waitingCount="2" stopTime="0.00" timeLoss="134.92" rerouteNo="0" devices="tripinfo_veh136" vType="CarA" speedFactor="1.12" vaporized=""/>
    <tripinfo id="veh134" depart="25.00" departLane="gneE58_0" departPos="5.10" departSpeed="0.00" departDelay="25.00" arrival="201.00" arrivalLane="gneE47_0" arrivalPos="92.80" arrivalSpeed="16.56" duration="176.00" routeLength="574.56" waitingTime="94.00" waitingCount="3" stopTime="0.00" timeLoss="140.43" rerouteNo="0" devices="tripinfo_veh134" vType="CarA" speedFactor="1.23" vaporized=""/>
    <tripinfo id="veh15" depart="0.00" departLane="gneE46_0" departPos="5.10" departSpeed="0.00" departDelay="0.00" arrival="203.00" arrivalLane="gneE2_0" arrivalPos="405.29" arrivalSpeed="16.67" duration="203.00" routeLength="1744.96" waitingTime="31.00" waitingCount="2" stopTime="0.00" timeLoss="94.74" rerouteNo="0" devices="tripinfo_veh15" vType="CarA" speedFactor="0.93" vaporized=""/>
    <tripinfo id="veh100" depart="56.00" departLane="gneE0_0" departPos="5.10" departSpeed="0.00" departDelay="56.00" arrival="204.00" arrivalLane="gneE2_1" arrivalPos="405.29" arrivalSpeed="16.52" duration="148.00" routeLength="1746.26" waitingTime="5.00" waitingCount="1" stopTime="0.00" timeLoss="41.50" rerouteNo="0" devices="tripinfo_veh100" vType="CarA" speedFactor="1.07" vaporized=""/>
    <tripinfo id="veh129" depart="25.00" departLane="gneE51_0" departPos="5.10" departSpeed="0.00" departDelay="25.00" arrival="205.00" arrivalLane="gneE57_0" arrivalPos="92.80" arrivalSpeed="16.54" duration="180.00" routeLength="691.74" waitingTime="70.00" waitingCount="3" stopTime="0.00" timeLoss="135.67" rerouteNo="0" devices="tripinfo_veh129" vType="CarA" speedFactor="1.01" vaporized=""/>
    <tripinfo id="veh16" depart="0.00" departLane="gneE44_0" departPos="5.10" departSpeed="0.00" departDelay="0.00" arrival="207.00" arrivalLane="gneE2_0" arrivalPos="405.29" arrivalSpeed="16.45" duration="207.00" routeLength="1743.51" waitingTime="21.00" waitingCount="3" stopTime="0.00" timeLoss="95.81" rerouteNo="0" devices="tripinfo_veh16" vType="CarA" speedFactor="0.88" vaporized=""/>
    <tripinfo id="veh162" depart="98.00" departLane="gneE0_0" departPos="5.10" departSpeed="0.00" departDelay="88.00" arrival="209.00" arrivalLane="gneE2_0" arrivalPos="405.29" arrivalSpeed="16.46" duration="111.00" routeLength="1594.89" waitingTime="0.00" waitingCount="0" stopTime="0.00" timeLoss="14.83" rerouteNo="0" devices="tripinfo_veh162" vType="CarA" speedFactor="0.99" vaporized=""/>
    <tripinfo id="veh109" depart="41.00" departLane="gneE84_0" departPos="5.10" departSpeed="0.00" departDelay="41.00" arrival="209.00" arrivalLane="gneE60_0" arrivalPos="96.80" arrivalSpeed="12.36" duration="168.00" routeLength="1074.77" waitingTime="32.00" waitingCount="2" stopTime="0.00" timeLoss="98.45" rerouteNo="0" devices="tripinfo_veh109" vType="CarA" speedFactor="0.96" vaporized=""/>
    <tripinfo id="veh39" depart="20.00" departLane="gneE86_0" departPos="5.10" departSpeed="0.00" departDelay="20.00" arrival="211.00" arrivalLane="gneE60_0" arrivalPos="96.80" arrivalSpeed="11.94" duration="191.00" routeLength="1170.20" waitingTime="27.00" waitingCount="3" stopTime="0.00" timeLoss="115.45" rerouteNo="0" devices="tripinfo_veh39" vType="CarA" speedFactor="0.90" vaporized=""/>
    <tripinfo id="veh73" depart="10.00" departLane="gneE61_0" departPos="5.10" departSpeed="0.00" departDelay="10.00" arrival="211.00" arrivalLane="gneE47_0" arrivalPos="92.80" arrivalSpeed="16.37" duration="201.00" routeLength="669.99" waitingTime="100.00" waitingCount="3" stopTime="0.00" timeLoss="158.01" rerouteNo="0" devices="tripinfo_veh73" vType="CarA" speedFactor="1.06" vaporized=""/>
    <tripinfo id="veh165" depart="103.00" departLane="gneE0_0" departPos="5.10" departSpeed="0.00" departDelay="83.00" arrival="215.00" arrivalLane="gneE2_0" arrivalPos="405.29" arrivalSpeed="16.34" duration="112.00" routeLength="1594.89" waitingTime="0.00" waitingCount="0" stopTime="0.00" timeLoss="15.77" rerouteNo="0" devices="tripinfo_veh165" vType="CarA" speedFactor="0.91" vaporized=""/>
    <tripinfo id="veh168" depart="109.00" departLane="gneE0_0" departPos="5.10" departSpeed="0.00" departDelay="79.00" arrival="220.00" arrivalLane="gneE2_0" arrivalPos="405.29" arrivalSpeed="16.42" duration="111.00" routeLength="1594.89" waitingTime="0.00" waitingCount="0" stopTime="0.00" timeLoss="15.30" rerouteNo="0" devices="tripinfo_veh168" vType="CarA" speedFactor="0.98" vaporized=""/>
    <tripinfo id="veh9" depart="0.00" departLane="gneE51_0" departPos="5.10" departSpeed="0.00" departDelay="0.00" arrival="222.00" arrivalLane="gneE2_0" arrivalPos="405.29" arrivalSpeed="16.50" duration="222.00" routeLength="1152.34" waitingTime="81.00" waitingCount="3" stopTime="0.00" timeLoss="148.70" rerouteNo="0" devices="tripinfo_veh9" vType="CarA" speedFactor="0.86" vaporized=""/>
    <tripinfo id="veh171" depart="114.00" departLane="gneE0_0" departPos="5.10" departSpeed="0.00" departDelay="74.00" arrival="224.00" arrivalLane="gneE2_0" arrivalPos="405.29" arrivalSpeed="16.66" duration="110.00" routeLength="1594.89" waitingTime="0.00" waitingCount="0" stopTime="0.00" timeLoss="13.79" rerouteNo="0" devices="tripinfo_veh171" vType="CarA" speedFactor="0.90" vaporized=""/>
    <tripinfo id="veh174" depart="119.00" departLane="gneE0_0" departPos="5.10" departSpeed="0.00" departDelay="69.00" arrival="230.00" arrivalLane="gneE2_0" arrivalPos="405.29" arrivalSpeed="16.31" duration="111.00" routeLength="1594.89" waitingTime="0.00" waitingCount="0" stopTime="0.00" timeLoss="14.85" rerouteNo="0" devices="tripinfo_veh174" vType="CarA" speedFactor="0.96" vaporized=""/>
    <tripinfo id="veh123" depart="30.00" departLane="gneE48_0" departPos="5.10" departSpeed="0.00" departDelay="30.00" arrival="234.00" arrivalLane="gneE21_0" arrivalPos="189.60" arrivalSpeed="16.36" duration="204.00" routeLength="594.31" waitingTime="119.00" waitingCount="2" stopTime="0.00" timeLoss="166.50" rerouteNo="0" devices="tripinfo_veh123" vType="CarA" speedFactor="1.02" vaporized=""/>
    <tripinfo id="veh177" depart="124.00" departLane="gneE0_0" departPos="5.10" departSpeed="0.00" departDelay="64.00" arrival="235.00" arrivalLane="gneE2_0" arrivalPos="405.29" arrivalSpeed="16.51" duration="111.00" routeLength="1594.89" waitingTime="0.00" waitingCount="0" stopTime="0.00" timeLoss="14.83" rerouteNo="0" devices="tripinfo_veh177" vType="CarA" speedFactor="1.03" vaporized=""/>
    <tripinfo id="veh20" depart="10.00" departLane="gneE0_0" departPos="5.10" departSpeed="0.00" departDelay="10.00" arrival="236.00" arrivalLane="gneE21_0" arrivalPos="189.60" arrivalSpeed="16.39" duration="226.00" routeLength="1659.60" waitingTime="84.00" waitingCount="1" stopTime="0.00" timeLoss="124.73" rerouteNo="0" devices="tripinfo_veh20" vType="CarA" speedFactor="1.02" vaporized=""/>
    <tripinfo id="veh180" depart="130.00" departLane="gneE0_0" departPos="5.10" departSpeed="0.00" departDelay="60.00" arrival="239.00" arrivalLane="gneE2_0" arrivalPos="405.29" arrivalSpeed="16.40" duration="109.00" routeLength="1594.89" waitingTime="0.00" waitingCount="0" stopTime="0.00" timeLoss="13.47" rerouteNo="0" devices="tripinfo_veh180" vType="CarA" speedFactor="1.10" vaporized=""/>
    <tripinfo id="veh103" depart="72.00" departLane="gneE0_0" departPos="5.10" departSpeed="0.00" departDelay="72.00" arrival="239.00" arrivalLane="gneE73_0" arrivalPos="92.80" arrivalSpeed="15.42" duration="167.00" routeLength="1054.42" waitingTime="53.00" waitingCount="1" stopTime="0.00" timeLoss="101.81" rerouteNo="0" devices="tripinfo_veh103" vType="CarA" speedFactor="0.95" vaporized=""/>
    <tripinfo id="veh81" depart="15.00" departLane="gneE7_0" departPos="5.10" departSpeed="0.00" departDelay="15.00" arrival="241.00" arrivalLane="gneE60_0" arrivalPos="96.80" arrivalSpeed="12.30" duration="226.00" routeLength="475.90" waitingTime="158.00" waitingCount="1" stopTime="0.00" timeLoss="194.35" rerouteNo="0" devices="tripinfo_veh81" vType="CarA" speedFactor="1.00" vaporized=""/>
    <tripinfo id="veh61" depart="25.00" departLane="gneE48_0" departPos="5.10" departSpeed="0.00" departDelay="25.00" arrival="243.00" arrivalLane="gneE43_0" arrivalPos="89.60" arrivalSpeed="12.85" duration="218.00" routeLength="682.38" waitingTime="122.00" waitingCount="2" stopTime="0.00" timeLoss="175.53" rerouteNo="0" devices="tripinfo_veh61" vType="CarA" speedFactor="1.12" vaporized=""/>