<?xml version="1.0" encoding="UTF-8"?>

<!-- generated on 10/31/18 19:06:51 by Eclipse SUMO Version 1.0.1
<configuration xmlns:xsi="http://www.w3.org/2001/XMLSchema-instance" xsi:noNamespaceSchemaLocation="http://sumo.dlr.de/xsd/sumoConfiguration.xsd">

    <input>
        <net-file value="data/CustomNet.net.xml"/>
        <route-files value="data/CustomNet.rou.xml"/>
        <additional-files value="data/CustomNetAdditionals.xml"/>
    </input>

    <output>
        <tripinfo-output value="tripinfo.xml"/>
    </output>

    <processing>
        <time-to-teleport value="-1"/>
    </processing>

    <traci_server>
        <remote-port value="62888"/>
    </traci_server>

</configuration>
-->

<tripinfos xmlns:xsi="http://www.w3.org/2001/XMLSchema-instance" xsi:noNamespaceSchemaLocation="http://sumo.dlr.de/xsd/tripinfo_file.xsd">
    <tripinfo id="veh91" depart="13.00" departLane="gneE16_0" departPos="5.10" departSpeed="0.00" departDelay="13.00" arrival="57.00" arrivalLane="gneE63_0" arrivalPos="92.80" arrivalSpeed="18.43" duration="44.00" routeLength="394.15" waitingTime="0.00" waitingCount="0" stopTime="0.00" timeLoss="27.09" rerouteNo="0" devices="tripinfo_veh91" vType="CarA" speedFactor="0.89" vaporized=""/>
    <tripinfo id="veh65" depart="8.00" departLane="gneE64_0" departPos="5.10" departSpeed="0.00" departDelay="8.00" arrival="73.00" arrivalLane="gneE6_0" arrivalPos="192.80" arrivalSpeed="17.61" duration="65.00" routeLength="386.33" waitingTime="13.00" waitingCount="1" stopTime="0.00" timeLoss="49.01" rerouteNo="0" devices="tripinfo_veh65" vType="CarA" speedFactor="0.88" vaporized=""/>
    <tripinfo id="veh0" depart="0.00" departLane="gneE0_0" departPos="5.10" departSpeed="0.00" departDelay="0.00" arrival="79.00" arrivalLane="gneE2_2" arrivalPos="405.29" arrivalSpeed="27.64" duration="79.00" routeLength="1594.89" waitingTime="0.00" waitingCount="0" stopTime="0.00" timeLoss="21.66" rerouteNo="0" devices="tripinfo_veh0" vType="CarA" speedFactor="1.06" vaporized=""/>
    <tripinfo id="veh209" depart="33.00" departLane="gneE46_0" departPos="5.10" departSpeed="0.00" departDelay="33.00" arrival="79.00" arrivalLane="gneE57_0" arrivalPos="92.80" arrivalSpeed="24.62" duration="46.00" routeLength="486.42" waitingTime="0.00" waitingCount="0" stopTime="0.00" timeLoss="27.00" rerouteNo="0" devices="tripinfo_veh209" vType="CarA" speedFactor="0.98" vaporized=""/>
    <tripinfo id="veh206" depart="19.00" departLane="gneE46_0" departPos="5.10" departSpeed="0.00" departDelay="19.00" arrival="82.00" arrivalLane="gneE21_0" arrivalPos="189.60" arrivalSpeed="16.26" duration="63.00" routeLength="474.06" waitingTime="4.00" waitingCount="1" stopTime="0.00" timeLoss="44.50" rerouteNo="0" devices="tripinfo_veh206" vType="CarA" speedFactor="1.00" vaporized=""/>
    <tripinfo id="veh17" depart="4.00" departLane="gneE0_0" departPos="5.10" departSpeed="0.00" departDelay="4.00" arrival="83.00" arrivalLane="gneE2_2" arrivalPos="405.29" arrivalSpeed="27.64" duration="79.00" routeLength="1594.89" waitingTime="0.00" waitingCount="0" stopTime="0.00" timeLoss="21.62" rerouteNo="0" devices="tripinfo_veh17" vType="CarA" speedFactor="0.94" vaporized=""/>
    <tripinfo id="veh20" depart="8.00" departLane="gneE0_0" departPos="5.10" departSpeed="0.00" departDelay="8.00" arrival="87.00" arrivalLane="gneE2_2" arrivalPos="405.29" arrivalSpeed="27.96" duration="79.00" routeLength="1594.89" waitingTime="1.00" waitingCount="1" stopTime="0.00" timeLoss="21.54" rerouteNo="0" devices="tripinfo_veh20" vType="CarA" speedFactor="1.02" vaporized=""/>
    <tripinfo id="veh191" depart="23.00" departLane="gneE40_0" departPos="5.10" departSpeed="0.00" departDelay="23.00" arrival="88.00" arrivalLane="gneE73_0" arrivalPos="92.80" arrivalSpeed="20.07" duration="65.00" routeLength="485.99" waitingTime="6.00" waitingCount="1" stopTime="0.00" timeLoss="46.22" rerouteNo="0" devices="tripinfo_veh191" vType="CarA" speedFactor="0.93" vaporized=""/>
    <tripinfo id="veh83" depart="10.00" departLane="gneE71_0" departPos="5.10" departSpeed="0.00" departDelay="10.00" arrival="98.00" arrivalLane="gneE6_0" arrivalPos="192.80" arrivalSpeed="17.37" duration="88.00" routeLength="482.30" waitingTime="21.00" waitingCount="1" stopTime="0.00" timeLoss="67.97" rerouteNo="0" devices="tripinfo_veh83" vType="CarA" speedFactor="0.97" vaporized=""/>
    <tripinfo id="veh134" depart="9.00" departLane="gneE58_0" departPos="5.10" departSpeed="0.00" departDelay="9.00" arrival="115.00" arrivalLane="gneE21_0" arrivalPos="189.60" arrivalSpeed="16.25" duration="106.00" routeLength="396.09" waitingTime="53.00" waitingCount="1" stopTime="0.00" timeLoss="90.54" rerouteNo="0" devices="tripinfo_veh134" vType="CarA" speedFactor="1.23" vaporized=""/>
    <tripinfo id="veh47" depart="21.00" departLane="gneE84_0" departPos="5.10" departSpeed="0.00" departDelay="21.00" arrival="116.00" arrivalLane="gneE6_0" arrivalPos="192.80" arrivalSpeed="15.44" duration="95.00" routeLength="583.13" waitingTime="20.00" waitingCount="2" stopTime="0.00" timeLoss="72.55" rerouteNo="0" devices="tripinfo_veh47" vType="CarA" speedFactor="0.90" vaporized=""/>
    <tripinfo id="veh135" depart="13.00" departLane="gneE58_0" departPos="5.10" departSpeed="0.00" departDelay="13.00" arrival="116.00" arrivalLane="gneE47_0" arrivalPos="92.80" arrivalSpeed="16.36" duration="103.00" routeLength="574.56" waitingTime="24.00" waitingCount="1" stopTime="0.00" timeLoss="80.23" rerouteNo="0" devices="tripinfo_veh135" vType="CarA" speedFactor="1.01" vaporized=""/>
    <tripinfo id="veh189" depart="14.00" departLane="gneE40_0" departPos="5.10" departSpeed="0.00" departDelay="14.00" arrival="124.00" arrivalLane="gneE6_0" arrivalPos="192.80" arrivalSpeed="23.15" duration="110.00" routeLength="687.02" waitingTime="41.00" waitingCount="1" stopTime="0.00" timeLoss="82.45" rerouteNo="0" devices="tripinfo_veh189" vType="CarA" speedFactor="0.97" vaporized=""/>
    <tripinfo id="veh205" depart="14.00" departLane="gneE46_0" departPos="5.10" departSpeed="0.00" departDelay="14.00" arrival="127.00" arrivalLane="gneE6_0" arrivalPos="192.80" arrivalSpeed="22.00" duration="113.00" routeLength="894.64" waitingTime="21.00" waitingCount="2" stopTime="0.00" timeLoss="77.95" rerouteNo="0" devices="tripinfo_veh205" vType="CarA" speedFactor="1.02" vaporized=""/>
    <tripinfo id="veh213" depart="15.00" departLane="gneE44_0" departPos="5.10" departSpeed="0.00" departDelay="15.00" arrival="133.00" arrivalLane="gneE6_1" arrivalPos="192.80" arrivalSpeed="24.74" duration="118.00" routeLength="893.19" waitingTime="30.00" waitingCount="3" stopTime="0.00" timeLoss="82.94" rerouteNo="0" devices="tripinfo_veh213" vType="CarA" speedFactor="1.10" vaporized=""/>
