<?xml version="1.0" encoding="UTF-8"?>

<!-- generated on 11/04/18 02:21:30 by Eclipse SUMO Version 1.0.1
<configuration xmlns:xsi="http://www.w3.org/2001/XMLSchema-instance" xsi:noNamespaceSchemaLocation="http://sumo.dlr.de/xsd/sumoConfiguration.xsd">

    <input>
        <net-file value="data/CustomNet.net.xml"/>
        <route-files value="data/CustomNetConst.rou.xml"/>
    </input>

    <output>
        <tripinfo-output value="tripinfo.xml"/>
    </output>

    <processing>
        <time-to-teleport value="-1"/>
    </processing>

    <traci_server>
        <remote-port value="51204"/>
    </traci_server>

</configuration>
-->

<tripinfos xmlns:xsi="http://www.w3.org/2001/XMLSchema-instance" xsi:noNamespaceSchemaLocation="http://sumo.dlr.de/xsd/tripinfo_file.xsd">
    <tripinfo id="veh35" depart="10.00" departLane="gneE16_0" departPos="5.10" departSpeed="0.00" departDelay="10.00" arrival="53.00" arrivalLane="gneE63_0" arrivalPos="92.80" arrivalSpeed="16.32" duration="43.00" routeLength="394.15" waitingTime="0.00" waitingCount="0" stopTime="0.00" timeLoss="18.09" rerouteNo="0" devices="tripinfo_veh35" vType="CarA" speedFactor="1.02" vaporized=""/>
    <tripinfo id="veh36" depart="16.00" departLane="gneE16_0" departPos="5.10" departSpeed="0.00" departDelay="16.00" arrival="79.00" arrivalLane="gneE66_0" arrivalPos="96.80" arrivalSpeed="11.53" duration="63.00" routeLength="490.12" waitingTime="0.00" waitingCount="0" stopTime="0.00" timeLoss="30.85" rerouteNo="0" devices="tripinfo_veh36" vType="CarA" speedFactor="0.97" vaporized=""/>
    <tripinfo id="veh67" depart="25.00" departLane="gneE7_0" departPos="5.10" departSpeed="0.00" departDelay="25.00" arrival="80.00" arrivalLane="gneE45_0" arrivalPos="89.60" arrivalSpeed="12.47" duration="55.00" routeLength="494.65" waitingTime="0.00" waitingCount="0" stopTime="0.00" timeLoss="22.32" rerouteNo="0" devices="tripinfo_veh67" vType="CarA" speedFactor="0.91" vaporized=""/>
    <tripinfo id="veh76" depart="0.00" departLane="gneE46_0" departPos="5.10" departSpeed="0.00" departDelay="0.00" arrival="85.00" arrivalLane="gneE73_0" arrivalPos="92.80" arrivalSpeed="15.89" duration="85.00" routeLength="693.61" waitingTime="10.00" waitingCount="1" stopTime="0.00" timeLoss="41.90" rerouteNo="0" devices="tripinfo_veh76" vType="CarA" speedFactor="1.03" vaporized=""/>
    <tripinfo id="veh72" depart="15.00" departLane="gneE40_0" departPos="5.10" departSpeed="0.00" departDelay="15.00" arrival="86.00" arrivalLane="gneE73_0" arrivalPos="92.80" arrivalSpeed="16.35" duration="71.00" routeLength="485.99" waitingTime="10.00" waitingCount="2" stopTime="0.00" timeLoss="40.88" rerouteNo="0" devices="tripinfo_veh72" vType="CarA" speedFactor="0.94" vaporized=""/>
    <tripinfo id="veh77" depart="5.00" departLane="gneE46_0" departPos="5.10" departSpeed="0.00" departDelay="5.00" arrival="86.00" arrivalLane="gneE57_0" arrivalPos="92.80" arrivalSpeed="14.99" duration="81.00" routeLength="486.42" waitingTime="16.00" waitingCount="1" stopTime="0.00" timeLoss="50.88" rerouteNo="0" devices="tripinfo_veh77" vType="CarA" speedFactor="0.98" vaporized=""/>
    <tripinfo id="veh140" depart="10.00" departLane="gneE46_0" departPos="5.10" departSpeed="0.00" departDelay="10.00" arrival="88.00" arrivalLane="gneE57_0" arrivalPos="92.80" arrivalSpeed="15.55" duration="78.00" routeLength="486.42" waitingTime="16.00" waitingCount="1" stopTime="0.00" timeLoss="47.94" rerouteNo="0" devices="tripinfo_veh140" vType="CarA" speedFactor="1.11" vaporized=""/>
    <tripinfo id="veh79" depart="5.00" departLane="gneE44_0" departPos="5.10" departSpeed="0.00" departDelay="5.00" arrival="89.00" arrivalLane="gneE21_0" arrivalPos="189.60" arrivalSpeed="16.05" duration="84.00" routeLength="483.13" waitingTime="12.00" waitingCount="1" stopTime="0.00" timeLoss="53.40" rerouteNo="0" devices="tripinfo_veh79" vType="CarA" speedFactor="1.09" vaporized=""/>
    <tripinfo id="veh82" depart="21.00" departLane="gneE44_0" departPos="5.10" departSpeed="0.00" departDelay="21.00" arrival="90.00" arrivalLane="gneE57_0" arrivalPos="92.80" arrivalSpeed="16.51" duration="69.00" routeLength="495.49" waitingTime="7.00" waitingCount="1" stopTime="0.00" timeLoss="38.38" rerouteNo="0" devices="tripinfo_veh82" vType="CarA" speedFactor="1.02" vaporized=""/>
    <tripinfo id="veh33" depart="5.00" departLane="gneE71_0" departPos="5.10" departSpeed="0.00" departDelay="5.00" arrival="96.00" arrivalLane="gneE6_0" arrivalPos="192.80" arrivalSpeed="16.52" duration="91.00" routeLength="482.30" waitingTime="17.00" waitingCount="2" stopTime="0.00" timeLoss="59.62" rerouteNo="0" devices="tripinfo_veh33" vType="CarA" speedFactor="1.17" vaporized=""/>
    <tripinfo id="veh71" depart="10.00" departLane="gneE40_0" departPos="5.10" departSpeed="0.00" departDelay="10.00" arrival="97.00" arrivalLane="gneE21_0" arrivalPos="189.60" arrivalSpeed="16.11" duration="87.00" routeLength="681.68" waitingTime="6.00" waitingCount="1" stopTime="0.00" timeLoss="43.78" rerouteNo="0" devices="tripinfo_veh71" vType="CarA" speedFactor="0.97" vaporized=""/>
    <tripinfo id="veh2" depart="0.00" departLane="gneE7_0" departPos="5.10" departSpeed="0.00" departDelay="0.00" arrival="99.00" arrivalLane="gneE2_0" arrivalPos="405.29" arrivalSpeed="16.40" duration="99.00" routeLength="1265.10" waitingTime="0.00" waitingCount="0" stopTime="0.00" timeLoss="22.12" rerouteNo="0" devices="tripinfo_veh2" vType="CarA" speedFactor="1.01" vaporized=""/>
    <tripinfo id="veh50" depart="5.00" departLane="gneE58_0" departPos="5.10" departSpeed="0.00" departDelay="5.00" arrival="100.00" arrivalLane="gneE43_0" arrivalPos="89.60" arrivalSpeed="13.20" duration="95.00" routeLength="495.06" waitingTime="29.00" waitingCount="1" stopTime="0.00" timeLoss="64.74" rerouteNo="0" devices="tripinfo_veh50" vType="CarA" speedFactor="0.85" vaporized=""/>
    <tripinfo id="veh68" depart="30.00" departLane="gneE7_0" departPos="5.10" departSpeed="0.00" departDelay="30.00" arrival="100.00" arrivalLane="gneE41_0" arrivalPos="89.60" arrivalSpeed="12.98" duration="70.00" routeLength="675.25" waitingTime="0.00" waitingCount="0" stopTime="0.00" timeLoss="27.33" rerouteNo="0" devices="tripinfo_veh68" vType="CarA" speedFactor="1.04" vaporized=""/>
    <tripinfo id="veh80" depart="10.00" departLane="gneE44_0" departPos="5.10" departSpeed="0.00" departDelay="10.00" arrival="100.00" arrivalLane="gneE73_0" arrivalPos="92.80" arrivalSpeed="16.52" duration="90.00" routeLength="692.16" waitingTime="10.00" waitingCount="1" stopTime="0.00" timeLoss="46.75" rerouteNo="0" devices="tripinfo_veh80" vType="CarA" speedFactor="1.03" vaporized=""/>
    <tripinfo id="veh49" depart="0.00" departLane="gneE58_0" departPos="5.10" departSpeed="0.00" departDelay="0.00" arrival="105.00" arrivalLane="gneE47_0" arrivalPos="92.80" arrivalSpeed="15.90" duration="105.00" routeLength="574.56" waitingTime="33.00" waitingCount="1" stopTime="0.00" timeLoss="68.85" rerouteNo="0" devices="tripinfo_veh49" vType="CarA" speedFactor="0.85" vaporized=""/>
    <tripinfo id="veh119" depart="30.00" departLane="gneE58_0" departPos="5.10" departSpeed="0.00" departDelay="30.00" arrival="106.00" arrivalLane="gneE43_0" arrivalPos="89.60" arrivalSpeed="13.85" duration="76.00" routeLength="495.06" waitingTime="11.00" waitingCount="1" stopTime="0.00" timeLoss="46.05" rerouteNo="0" devices="tripinfo_veh119" vType="CarA" speedFactor="1.07" vaporized=""/>
    <tripinfo id="veh26" depart="0.00" departLane="gneE67_0" departPos="5.10" departSpeed="0.00" departDelay="0.00" arrival="107.00" arrivalLane="gneE6_0" arrivalPos="192.80" arrivalSpeed="16.39" duration="107.00" routeLength="482.30" waitingTime="28.00" waitingCount="2" stopTime="0.00" timeLoss="75.69" rerouteNo="0" devices="tripinfo_veh26" vType="CarA" speedFactor="0.92" vaporized=""/>
    <tripinfo id="veh0" depart="0.00" departLane="gneE0_0" departPos="5.10" departSpeed="0.00" departDelay="0.00" arrival="111.00" arrivalLane="gneE2_0" arrivalPos="405.29" arrivalSpeed="16.60" duration="111.00" routeLength="1594.89" waitingTime="0.00" waitingCount="0" stopTime="0.00" timeLoss="14.66" rerouteNo="0" devices="tripinfo_veh0" vType="CarA" speedFactor="1.06" vaporized=""/>
    <tripinfo id="veh116" depart="15.00" departLane="gneE58_0" departPos="5.10" departSpeed="0.00" departDelay="15.00" arrival="115.00" arrivalLane="gneE21_0" arrivalPos="189.60" arrivalSpeed="15.98" duration="100.00" routeLength="396.09" waitingTime="49.00" waitingCount="1" stopTime="0.00" timeLoss="75.26" rerouteNo="0" devices="tripinfo_veh116" vType="CarA" speedFactor="1.18" vaporized=""/>
    <tripinfo id="veh55" depart="0.00" departLane="gneE61_0" departPos="5.10" departSpeed="0.00" departDelay="0.00" arrival="118.00" arrivalLane="gneE21_0" arrivalPos="189.60" arrivalSpeed="16.15" duration="118.00" routeLength="491.52" waitingTime="41.00" waitingCount="2" stopTime="0.00" timeLoss="85.75" rerouteNo="0" devices="tripinfo_veh55" vType="CarA" speedFactor="1.00" vaporized=""/>
    <tripinfo id="veh120" depart="35.00" departLane="gneE58_0" departPos="5.10" departSpeed="0.00" departDelay="35.00" arrival="123.00" arrivalLane="gneE39_0" arrivalPos="89.60" arrivalSpeed="16.31" duration="88.00" routeLength="683.58" waitingTime="7.00" waitingCount="1" stopTime="0.00" timeLoss="45.63" rerouteNo="0" devices="tripinfo_veh120" vType="CarA" speedFactor="0.94" vaporized=""/>
    <tripinfo id="veh107" depart="30.00" departLane="gneE48_0" departPos="5.10" departSpeed="0.00" departDelay="30.00" arrival="149.00" arrivalLane="gneE57_0" arrivalPos="92.80" arrivalSpeed="15.82" duration="119.00" routeLength="595.77" waitingTime="37.00" waitingCount="2" stopTime="0.00" timeLoss="81.58" rerouteNo="0" devices="tripinfo_veh107" vType="CarA" speedFactor="1.03" vaporized=""/>
    <tripinfo id="veh46" depart="5.00" departLane="gneE51_0" departPos="5.10" departSpeed="0.00" departDelay="5.00" arrival="151.00" arrivalLane="gneE57_0" arrivalPos="92.80" arrivalSpeed="16.08" duration="146.00" routeLength="691.74" waitingTime="50.00" waitingCount="2" stopTime="0.00" timeLoss="101.09" rerouteNo="0" devices="tripinfo_veh46" vType="CarA" speedFactor="1.00" vaporized=""/>
    <tripinfo id="veh112" depart="20.00" departLane="gneE51_0" departPos="5.10" departSpeed="0.00" departDelay="20.00" arrival="153.00" arrivalLane="gneE57_0" arrivalPos="92.80" arrivalSpeed="16.15" duration="133.00" routeLength="691.74" waitingTime="37.00" waitingCount="2" stopTime="0.00" timeLoss="87.96" rerouteNo="0" devices="tripinfo_veh112" vType="CarA" speedFactor="1.10" vaporized=""/>
    <tripinfo id="veh66" depart="20.00" departLane="gneE7_0" departPos="5.10" departSpeed="0.00" departDelay="20.00" arrival="163.00" arrivalLane="gneE73_0" arrivalPos="92.80" arrivalSpeed="16.26" duration="143.00" routeLength="983.03" waitingTime="37.00" waitingCount="1" stopTime="0.00" timeLoss="81.21" rerouteNo="0" devices="tripinfo_veh66" vType="CarA" speedFactor="0.91" vaporized=""/>
    <tripinfo id="veh135" depart="50.00" departLane="gneE7_0" departPos="5.10" departSpeed="0.00" departDelay="50.00" arrival="165.00" arrivalLane="gneE43_0" arrivalPos="89.60" arrivalSpeed="14.32" duration="115.00" routeLength="496.09" waitingTime="51.00" waitingCount="1" stopTime="0.00" timeLoss="83.97" rerouteNo="0" devices="tripinfo_veh135" vType="CarA" speedFactor="1.01" vaporized=""/>
    <tripinfo id="veh144" depart="36.00" departLane="gneE44_0" departPos="5.10" departSpeed="0.00" departDelay="36.00" arrival="168.00" arrivalLane="gneE21_0" arrivalPos="189.60" arrivalSpeed="16.15" duration="132.00" routeLength="483.13" waitingTime="57.00" waitingCount="2" stopTime="0.00" timeLoss="101.55" rerouteNo="0" devices="tripinfo_veh144" vType="CarA" speedFactor="0.73" vaporized=""/>
    <tripinfo id="veh16" depart="16.00" departLane="gneE84_0" departPos="5.10" departSpeed="0.00" departDelay="16.00" arrival="170.00" arrivalLane="gneE21_0" arrivalPos="189.60" arrivalSpeed="15.65" duration="154.00" routeLength="970.07" waitingTime="38.00" waitingCount="2" stopTime="0.00" timeLoss="93.15" rerouteNo="0" devices="tripinfo_veh16" vType="CarA" speedFactor="0.88" vaporized=""/>
    <tripinfo id="veh136" depart="55.00" departLane="gneE7_0" departPos="5.10" departSpeed="0.00" departDelay="55.00" arrival="180.00" arrivalLane="gneE39_0" arrivalPos="89.60" arrivalSpeed="16.43" duration="125.00" routeLength="684.61" waitingTime="47.00" waitingCount="1" stopTime="0.00" timeLoss="82.35" rerouteNo="0" devices="tripinfo_veh136" vType="CarA" speedFactor="1.12" vaporized=""/>
    <tripinfo id="veh52" depart="5.00" departLane="gneE55_0" departPos="5.10" departSpeed="0.00" departDelay="5.00" arrival="181.00" arrivalLane="gneE85_0" arrivalPos="96.80" arrivalSpeed="12.60" duration="176.00" routeLength="1167.54" waitingTime="24.00" waitingCount="3" stopTime="0.00" timeLoss="101.23" rerouteNo="0" devices="tripinfo_veh52" vType="CarA" speedFactor="1.02" vaporized=""/>
    <tripinfo id="veh94" depart="26.00" departLane="gneE86_0" departPos="5.10" departSpeed="0.00" departDelay="26.00" arrival="182.00" arrivalLane="gneE57_0" arrivalPos="92.80" arrivalSpeed="12.79" duration="156.00" routeLength="1077.86" waitingTime="20.00" waitingCount="2" stopTime="0.00" timeLoss="88.67" rerouteNo="0" devices="tripinfo_veh94" vType="CarA" speedFactor="1.09" vaporized=""/>
    <tripinfo id="veh83" depart="52.00" departLane="gneE0_0" departPos="5.10" departSpeed="0.00" departDelay="52.00" arrival="183.00" arrivalLane="gneE2_0" arrivalPos="405.29" arrivalSpeed="16.48" duration="131.00" routeLength="1746.25" waitingTime="0.00" waitingCount="0" stopTime="0.00" timeLoss="24.79" rerouteNo="0" devices="tripinfo_veh83" vType="CarA" speedFactor="0.97" vaporized=""/>
    <tripinfo id="veh60" depart="26.00" departLane="gneE61_0" departPos="5.10" departSpeed="0.00" departDelay="26.00" arrival="186.00" arrivalLane="gneE43_0" arrivalPos="89.60" arrivalSpeed="13.31" duration="160.00" routeLength="590.49" waitingTime="61.00" waitingCount="3" stopTime="0.00" timeLoss="123.38" rerouteNo="0" devices="tripinfo_veh60" vType="CarA" speedFactor="1.08" vaporized=""/>
    <tripinfo id="veh92" depart="36.00" departLane="gneE84_0" departPos="5.10" departSpeed="0.00" departDelay="36.00" arrival="190.00" arrivalLane="gneE60_0" arrivalPos="96.80" arrivalSpeed="11.70" duration="154.00" routeLength="1074.77" waitingTime="19.00" waitingCount="2" stopTime="0.00" timeLoss="85.90" rerouteNo="0" devices="tripinfo_veh92" vType="CarA" speedFactor="0.83" vaporized=""/>
    <tripinfo id="veh22" depart="15.00" departLane="gneE86_0" departPos="5.10" departSpeed="0.00" departDelay="15.00" arrival="193.00" arrivalLane="gneE60_0" arrivalPos="96.80" arrivalSpeed="12.37" duration="178.00" routeLength="1170.20" waitingTime="24.00" waitingCount="2" stopTime="0.00" timeLoss="102.77" rerouteNo="0" devices="tripinfo_veh22" vType="CarA" speedFactor="0.98" vaporized=""/>
    <tripinfo id="veh54" depart="15.00" departLane="gneE55_0" departPos="5.10" departSpeed="0.00" departDelay="15.00" arrival="204.00" arrivalLane="gneE41_0" arrivalPos="89.60" arrivalSpeed="12.44" duration="189.00" routeLength="766.99" waitingTime="73.00" waitingCount="4" stopTime="0.00" timeLoss="140.27" rerouteNo="0" devices="tripinfo_veh54" vType="CarA" speedFactor="1.00" vaporized=""/>
    <tripinfo id="veh61" depart="31.00" departLane="gneE61_0" departPos="5.10" departSpeed="0.00" departDelay="31.00" arrival="205.00" arrivalLane="gneE39_0" arrivalPos="89.60" arrivalSpeed="16.46" duration="174.00" routeLength="779.01" waitingTime="51.00" waitingCount="5" stopTime="0.00" timeLoss="125.03" rerouteNo="0" devices="tripinfo_veh61" vType="CarA" speedFactor="1.12" vaporized=""/>
    <tripinfo id="veh123" depart="30.00" departLane="gneE55_0" departPos="5.10" departSpeed="0.00" departDelay="30.00" arrival="208.00" arrivalLane="gneE43_0" arrivalPos="89.60" arrivalSpeed="11.99" duration="178.00" routeLength="587.83" waitingTime="55.00" waitingCount="4" stopTime="0.00" timeLoss="141.68" rerouteNo="0" devices="tripinfo_veh123" vType="CarA" speedFactor="1.02" vaporized=""/>
    <tripinfo id="veh117" depart="20.00" departLane="gneE58_0" departPos="5.10" departSpeed="0.00" departDelay="20.00" arrival="210.00" arrivalLane="gneE47_0" arrivalPos="92.80" arrivalSpeed="15.58" duration="190.00" routeLength="574.56" waitingTime="108.00" waitingCount="2" stopTime="0.00" timeLoss="153.27" rerouteNo="0" devices="tripinfo_veh117" vType="CarA" speedFactor="1.00" vaporized=""/>
    <tripinfo id="veh145" depart="100.00" departLane="gneE0_0" departPos="5.10" departSpeed="0.00" departDelay="0.00" arrival="211.00" arrivalLane="gneE2_0" arrivalPos="405.29" arrivalSpeed="16.38" duration="111.00" routeLength="1594.89" waitingTime="0.00" waitingCount="0" stopTime="0.00" timeLoss="14.65" rerouteNo="0" devices="tripinfo_veh145" vType="CarA" speedFactor="1.14" vaporized=""/>
    <tripinfo id="veh126" depart="42.00" departLane="gneE61_0" departPos="5.10" departSpeed="0.00" departDelay="42.00" arrival="211.00" arrivalLane="gneE21_0" arrivalPos="189.60" arrivalSpeed="15.31" duration="169.00" routeLength="491.52" waitingTime="54.00" waitingCount="5" stopTime="0.00" timeLoss="137.87" rerouteNo="0" devices="tripinfo_veh126" vType="CarA" speedFactor="1.03" vaporized=""/>
    <tripinfo id="veh141" depart="15.00" departLane="gneE46_0" departPos="5.10" departSpeed="0.00" departDelay="15.00" arrival="212.00" arrivalLane="gneE47_0" arrivalPos="92.80" arrivalSpeed="15.73" duration="197.00" routeLength="678.45" waitingTime="109.00" waitingCount="2" stopTime="0.00" timeLoss="154.07" rerouteNo="0" devices="tripinfo_veh141" vType="CarA" speedFactor="1.16" vaporized=""/>
    <tripinfo id="veh56" depart="5.00" departLane="gneE61_0" departPos="5.10" departSpeed="0.00" departDelay="5.00" arrival="215.00" arrivalLane="gneE47_0" arrivalPos="92.80" arrivalSpeed="16.41" duration="210.00" routeLength="669.99" waitingTime="100.00" waitingCount="3" stopTime="0.00" timeLoss="166.07" rerouteNo="0" devices="tripinfo_veh56" vType="CarA" speedFactor="0.90" vaporized=""/>
    <tripinfo id="veh62" depart="37.00" departLane="gneE61_0" departPos="5.10" departSpeed="0.00" departDelay="37.00" arrival="219.00" arrivalLane="gneE41_0" arrivalPos="89.60" arrivalSpeed="12.31" duration="182.00" routeLength="769.65" waitingTime="44.00" waitingCount="6" stopTime="0.00" timeLoss="133.89" rerouteNo="0" devices="tripinfo_veh62" vType="CarA" speedFactor="1.02" vaporized=""/>
    <tripinfo id="veh91" depart="31.00" departLane="gneE84_0" departPos="5.10" departSpeed="0.00" departDelay="31.00" arrival="221.00" arrivalLane="gneE6_0" arrivalPos="192.80" arrivalSpeed="15.45" duration="190.00" routeLength="583.13" waitingTime="111.00" waitingCount="2" stopTime="0.00" timeLoss="154.05" rerouteNo="0" devices="tripinfo_veh91" vType="CarA" speedFactor="0.89" vaporized=""/>
    <tripinfo id="veh70" depart="5.00" departLane="gneE40_0" departPos="5.10" departSpeed="0.00" departDelay="5.00" arrival="222.00" arrivalLane="gneE6_1" arrivalPos="192.80" arrivalSpeed="15.14" duration="217.00" routeLength="687.02" waitingTime="123.00" waitingCount="2" stopTime="0.00" timeLoss="173.75" rerouteNo="0" devices="tripinfo_veh70" vType="CarA" speedFactor="1.02" vaporized=""/>
    <tripinfo id="veh5" depart="10.00" departLane="gneE0_0" departPos="5.10" departSpeed="0.00" departDelay="10.00" arrival="222.00" arrivalLane="gneE73_0" arrivalPos="92.80" arrivalSpeed="15.09" duration="212.00" routeLength="1054.42" waitingTime="96.00" waitingCount="2" stopTime="0.00" timeLoss="146.11" rerouteNo="0" devices="tripinfo_veh5" vType="CarA" speedFactor="0.83" vaporized=""/>
    <tripinfo id="veh73" depart="20.00" departLane="gneE40_0" departPos="5.10" departSpeed="0.00" departDelay="20.00" arrival="223.00" arrivalLane="gneE63_0" arrivalPos="92.80" arrivalSpeed="16.03" duration="203.00" routeLength="678.45" waitingTime="99.00" waitingCount="3" stopTime="0.00" timeLoss="159.59" rerouteNo="0" devices="tripinfo_veh73" vType="CarA" speedFactor="1.06" vaporized=""/>
    <tripinfo id="veh137" depart="25.00" departLane="gneE40_0" departPos="5.10" departSpeed="0.00" departDelay="25.00" arrival="224.00" arrivalLane="gneE6_1" arrivalPos="192.80" arrivalSpeed="15.72" duration="199.00" routeLength="687.02" waitingTime="95.00" waitingCount="3" stopTime="0.00" timeLoss="155.19" rerouteNo="0" devices="tripinfo_veh137" vType="CarA" speedFactor="1.02" vaporized=""/>
    <tripinfo id="veh81" depart="16.00" departLane="gneE44_0" departPos="5.10" departSpeed="0.00" departDelay="16.00" arrival="224.00" arrivalLane="gneE63_0" arrivalPos="92.80" arrivalSpeed="16.09" duration="208.00" routeLength="884.62" waitingTime="91.00" waitingCount="3" stopTime="0.00" timeLoss="151.60" rerouteNo="0" devices="tripinfo_veh81" vType="CarA" speedFactor="1.00" vaporized=""/>
    <tripinfo id="veh12" depart="47.00" departLane="gneE0_0" departPos="5.10" departSpeed="0.00" departDelay="47.00" arrival="224.00" arrivalLane="gneE47_0" arrivalPos="92.80" arrivalSpeed="14.52" duration="177.00" routeLength="1458.68" waitingTime="46.00" waitingCount="2" stopTime="0.00" timeLoss="87.54" rerouteNo="0" devices="tripinfo_veh12" vType="CarA" speedFactor="1.05" vaporized=""/>
    <tripinfo id="veh65" depart="15.00" departLane="gneE7_0" departPos="5.10" departSpeed="0.00" departDelay="15.00" arrival="225.00" arrivalLane="gneE6_1" arrivalPos="192.80" arrivalSpeed="15.54" duration="210.00" routeLength="1184.06" waitingTime="73.00" waitingCount="1" stopTime="0.00" timeLoss="134.73" rerouteNo="0" devices="tripinfo_veh65" vType="CarA" speedFactor="0.88" vaporized=""/>
    <tripinfo id="veh143" depart="31.00" departLane="gneE44_0" departPos="5.10" departSpeed="0.00" departDelay="31.00" arrival="227.00" arrivalLane="gneE6_0" arrivalPos="192.80" arrivalSpeed="16.40" duration="196.00" routeLength="893.19" waitingTime="81.00" waitingCount="2" stopTime="0.00" timeLoss="140.43" rerouteNo="0" devices="tripinfo_veh143" vType="CarA" speedFactor="1.13" vaporized=""/>
    <tripinfo id="veh75" depart="5.00" departLane="gneE42_0" departPos="5.10" departSpeed="0.00" departDelay="5.00" arrival="227.00" arrivalLane="gneE63_0" arrivalPos="92.80" arrivalSpeed="16.24" duration="222.00" routeLength="687.52" waitingTime="125.00" waitingCount="3" stopTime="0.00" timeLoss="178.15" rerouteNo="0" devices="tripinfo_veh75" vType="CarA" speedFactor="0.98" vaporized=""/>
    <tripinfo id="veh63" depart="5.00" departLane="gneE7_0" departPos="5.10" departSpeed="0.00" departDelay="5.00" arrival="228.00" arrivalLane="gneE57_0" arrivalPos="92.80" arrivalSpeed="15.70" duration="223.00" routeLength="383.56" waitingTime="172.00" waitingCount="1" stopTime="0.00" timeLoss="198.92" rerouteNo="0" devices="tripinfo_veh63" vType="CarA" speedFactor="0.99" vaporized=""/>
    <tripinfo id="veh17" depart="21.00" departLane="gneE84_0" departPos="5.10" departSpeed="0.00" departDelay="21.00" arrival="229.00" arrivalLane="gneE47_0" arrivalPos="92.80" arrivalSpeed="16.14" duration="208.00" routeLength="1174.46" waitingTime="74.00" waitingCount="2" stopTime="0.00" timeLoss="133.59" rerouteNo="0" devices="tripinfo_veh17" vType="CarA" speedFactor="0.94" vaporized=""/>
    <tripinfo id="veh86" depart="67.00" departLane="gneE0_0" departPos="5.10" departSpeed="0.00" departDelay="67.00" arrival="233.00" arrivalLane="gneE73_0" arrivalPos="92.80" arrivalSpeed="16.55" duration="166.00" routeLength="1054.42" waitingTime="53.00" waitingCount="1" stopTime="0.00" timeLoss="100.64" rerouteNo="0" devices="tripinfo_veh86" vType="CarA" speedFactor="1.00" vaporized=""/>
    <tripinfo id="veh106" depart="25.00" departLane="gneE48_0" departPos="5.10" departSpeed="0.00" departDelay="25.00" arrival="236.00" arrivalLane="gneE21_0" arrivalPos="189.60" arrivalSpeed="16.32" duration="211.00" routeLength="594.31" waitingTime="128.00" waitingCount="2" stopTime="0.00" timeLoss="174.31" rerouteNo="0" devices="tripinfo_veh106" vType="CarA" speedFactor="1.01" vaporized=""/>
    <tripinfo id="veh139" depart="16.00" departLane="gneE42_0" departPos="5.10" departSpeed="0.00" departDelay="16.00" arrival="237.00" arrivalLane="gneE63_0" arrivalPos="92.80" arrivalSpeed="13.32" duration="221.00" routeLength="687.52" waitingTime="96.00" waitingCount="6" stopTime="0.00" timeLoss="177.90" rerouteNo="0" devices="tripinfo_veh139" vType="CarA" speedFactor="0.95" vaporized=""/>
    <tripinfo id="veh6" depart="15.00" departLane="gneE0_0" departPos="5.10" departSpeed="0.00" departDelay="15.00" arrival="238.00" arrivalLane="gneE85_0" arrivalPos="96.80" arrivalSpeed="12.01" duration="223.00" routeLength="1147.19" waitingTime="95.00" waitingCount="1" stopTime="0.00" timeLoss="152.09" rerouteNo="0" devices="tripinfo_veh6" vType="CarA" speedFactor="1.05" vaporized=""/>
    <tripinfo id="veh40" depart="0.00" departLane="gneE48_0" departPos="5.10" departSpeed="0.00" departDelay="0.00" arrival="239.00" arrivalLane="gneE2_0" arrivalPos="405.29" arrivalSpeed="16.54" duration="239.00" routeLength="1056.37" waitingTime="125.00" waitingCount="2" stopTime="0.00" timeLoss="174.88" rerouteNo="0" devices="tripinfo_veh40" vType="CarA" speedFactor="1.03" vaporized=""/>
    <tripinfo id="veh38" depart="26.00" departLane="gneE16_0" departPos="5.10" departSpeed="0.00" departDelay="26.00" arrival="241.00" arrivalLane="gneE41_0" arrivalPos="89.60" arrivalSpeed="13.27" duration="215.00" routeLength="683.13" waitingTime="134.00" waitingCount="1" stopTime="0.00" timeLoss="172.59" rerouteNo="0" devices="tripinfo_veh38" vType="CarA" speedFactor="1.10" vaporized=""/>
    <tripinfo id="veh14" depart="6.00" departLane="gneE84_0" departPos="5.10" departSpeed="0.00" departDelay="6.00" arrival="242.00" arrivalLane="gneE47_0" arrivalPos="92.80" arrivalSpeed="16.35" duration="236.00" routeLength="1171.80" waitingTime="107.00" waitingCount="2" stopTime="0.00" timeLoss="161.10" rerouteNo="0" devices="tripinfo_veh14" vType="CarA" speedFactor="0.99" vaporized=""/>
    <tripinfo id="veh84" depart="57.00" departLane="gneE0_0" departPos="5.10" departSpeed="0.00" departDelay="57.00" arrival="244.00" arrivalLane="gneE6_1" arrivalPos="192.80" arrivalSpeed="16.67" duration="187.00" routeLength="1266.35" waitingTime="64.00" waitingCount="1" stopTime="0.00" timeLoss="109.88" rerouteNo="0" devices="tripinfo_veh84" vType="CarA" speedFactor="1.15" vaporized=""/>
    <tripinfo id="veh118" depart="25.00" departLane="gneE58_0" departPos="5.10" departSpeed="0.00" departDelay="25.00" arrival="245.00" arrivalLane="gneE66_0" arrivalPos="96.80" arrivalSpeed="12.84" duration="220.00" routeLength="1270.43" waitingTime="59.00" waitingCount="3" stopTime="0.00" timeLoss="138.49" rerouteNo="0" devices="tripinfo_veh118" vType="CarA" speedFactor="0.99" vaporized=""/>
    <tripinfo id="veh44" depart="20.00" departLane="gneE48_0" departPos="5.10" departSpeed="0.00" departDelay="20.00" arrival="245.00" arrivalLane="gneE43_0" arrivalPos="89.60" arrivalSpeed="14.69" duration="225.00" routeLength="682.38" waitingTime="129.00" waitingCount="2" stopTime="0.00" timeLoss="181.13" rerouteNo="0" devices="tripinfo_veh44" vType="CarA" speedFactor="1.04" vaporized=""/>
    <tripinfo id="veh7" depart="21.00" departLane="gneE0_0" departPos="5.10" departSpeed="0.00" departDelay="21.00" arrival="245.00" arrivalLane="gneE63_0" arrivalPos="92.80" arrivalSpeed="16.04" duration="224.00" routeLength="1257.78" waitingTime="91.00" waitingCount="1" stopTime="0.00" timeLoss="146.63" rerouteNo="0" devices="tripinfo_veh7" vType="CarA" speedFactor="0.89" vaporized=""/>
    <tripinfo id="veh64" depart="10.00" departLane="gneE7_0" departPos="5.10" departSpeed="0.00" departDelay="10.00" arrival="247.00" arrivalLane="gneE60_0" arrivalPos="96.80" arrivalSpeed="11.69" duration="237.00" routeLength="475.90" waitingTime="168.00" waitingCount="1" stopTime="0.00" timeLoss="205.86" rerouteNo="0" devices="tripinfo_veh64" vType="CarA" speedFactor="0.94" vaporized=""/>
    <tripinfo id="veh45" depart="0.00" departLane="gneE51_0" departPos="5.10" departSpeed="0.00" departDelay="0.00" arrival="248.00" arrivalLane="gneE21_0" arrivalPos="189.60" arrivalSpeed="16.55" duration="248.00" routeLength="690.28" waitingTime="151.00" waitingCount="2" stopTime="0.00" timeLoss="204.14" rerouteNo="0" devices="tripinfo_veh45" vType="CarA" speedFactor="1.09" vaporized=""/>
    <tripinfo id="veh53" depart="10.00" departLane="gneE55_0" departPos="5.10" departSpeed="0.00" departDelay="10.00" arrival="249.00" arrivalLane="gneE70_0" arrivalPos="96.80" arrivalSpeed="11.31" duration="239.00" routeLength="1363.20" waitingTime="55.00" waitingCount="4" stopTime="0.00" timeLoss="152.60" rerouteNo="0" devices="tripinfo_veh53" vType="CarA" speedFactor="1.10" vaporized=""/>
    <tripinfo id="veh18" depart="26.00" departLane="gneE84_0" departPos="5.10" departSpeed="0.00" departDelay="26.00" arrival="250.00" arrivalLane="gneE50_0" arrivalPos="96.80" arrivalSpeed="11.43" duration="224.00" routeLength="1270.43" waitingTime="66.00" waitingCount="2" stopTime="0.00" timeLoss="142.15" rerouteNo="0" devices="tripinfo_veh18" vType="CarA" speedFactor="0.94" vaporized=""/>
    <tripinfo id="veh147" depart="105.00" departLane="gneE0_0" departPos="5.10" departSpeed="0.00" departDelay="5.00" arrival="251.00" arrivalLane="gneE6_1" arrivalPos="192.80" arrivalSpeed="16.60" duration="146.00" routeLength="1266.35" waitingTime="23.00" waitingCount="1" stopTime="0.00" timeLoss="69.08" rerouteNo="0" devices="tripinfo_veh147" vType="CarA" speedFactor="1.00" vaporized=""/>
    <tripinfo id="veh51" depart="0.00" departLane="gneE55_0" departPos="5.10" departSpeed="0.00" departDelay="0.00" arrival="254.00" arrivalLane="gneE2_0" arrivalPos="405.29" arrivalSpeed="16.43" duration="254.00" routeLength="1345.94" waitingTime="109.00" waitingCount="3" stopTime="0.00" timeLoss="171.52" rerouteNo="0" devices="tripinfo_veh51" vType="CarA" speedFactor="1.17" vaporized=""/>