<?xml version="1.0" encoding="UTF-8"?>

<!-- generated on Sun Nov  4 14:40:13 2018 by Eclipse SUMO Version 1.0.0
<configuration xmlns:xsi="http://www.w3.org/2001/XMLSchema-instance" xsi:noNamespaceSchemaLocation="http://sumo.dlr.de/xsd/sumoConfiguration.xsd">

    <input>
        <net-file value="data/CustomNet.net.xml"/>
        <route-files value="data/CustomNetCycle.rou.xml"/>
        <additional-files value="data/CustomNetAdditionals2.xml"/>
    </input>

    <output>
        <tripinfo-output value="tripinfo.xml"/>
    </output>

    <processing>
        <time-to-teleport value="-1"/>
    </processing>

    <traci_server>
        <remote-port value="54840"/>
    </traci_server>

</configuration>
-->

<tripinfos xmlns:xsi="http://www.w3.org/2001/XMLSchema-instance" xsi:noNamespaceSchemaLocation="http://sumo.dlr.de/xsd/tripinfo_file.xsd">
    <tripinfo id="veh75" depart="5.00" departLane="gneE7_0" departPos="5.10" departSpeed="0.00" departDelay="5.00" arrival="49.00" arrivalLane="gneE57_0" arrivalPos="92.80" arrivalSpeed="16.26" duration="44.00" routeLength="383.56" waitingTime="0.00" waitingCount="0" stopTime="0.00" timeLoss="19.10" rerouteNo="0" devices="tripinfo_veh75" vType="CarA" speedFactor="0.98" vaporized=""/>
    <tripinfo id="veh46" depart="10.00" departLane="gneE16_0" departPos="5.10" departSpeed="0.00" departDelay="10.00" arrival="73.00" arrivalLane="gneE70_0" arrivalPos="96.80" arrivalSpeed="11.01" duration="63.00" routeLength="490.12" waitingTime="0.00" waitingCount="0" stopTime="0.00" timeLoss="32.17" rerouteNo="0" devices="tripinfo_veh46" vType="CarA" speedFactor="1.00" vaporized=""/>
    <tripinfo id="veh143" depart="34.00" departLane="gneE7_0" departPos="5.10" departSpeed="0.00" departDelay="34.00" arrival="78.00" arrivalLane="gneE57_0" arrivalPos="92.80" arrivalSpeed="16.55" duration="44.00" routeLength="383.56" waitingTime="1.00" waitingCount="1" stopTime="0.00" timeLoss="19.63" rerouteNo="0" devices="tripinfo_veh143" vType="CarA" speedFactor="1.13" vaporized=""/>
    <tripinfo id="veh28" depart="11.00" departLane="gneE84_0" departPos="5.10" departSpeed="0.00" departDelay="11.00" arrival="80.00" arrivalLane="gneE6_0" arrivalPos="192.80" arrivalSpeed="16.59" duration="69.00" routeLength="583.13" waitingTime="5.00" waitingCount="1" stopTime="0.00" timeLoss="33.36" rerouteNo="0" devices="tripinfo_veh28" vType="CarA" speedFactor="1.13" vaporized=""/>
    <tripinfo id="veh112" depart="42.00" departLane="gneE16_0" departPos="5.10" departSpeed="0.00" departDelay="42.00" arrival="85.00" arrivalLane="gneE63_0" arrivalPos="92.80" arrivalSpeed="16.64" duration="43.00" routeLength="394.15" waitingTime="0.00" waitingCount="0" stopTime="0.00" timeLoss="18.59" rerouteNo="0" devices="tripinfo_veh112" vType="CarA" speedFactor="1.10" vaporized=""/>
    <tripinfo id="veh77" depart="15.00" departLane="gneE7_0" departPos="5.10" departSpeed="0.00" departDelay="15.00" arrival="86.00" arrivalLane="gneE60_0" arrivalPos="96.80" arrivalSpeed="12.81" duration="71.00" routeLength="475.90" waitingTime="2.00" waitingCount="1" stopTime="0.00" timeLoss="40.02" rerouteNo="0" devices="tripinfo_veh77" vType="CarA" speedFactor="0.98" vaporized=""/>
    <tripinfo id="veh102" depart="33.00" departLane="gneE84_0" departPos="5.10" departSpeed="0.00" departDelay="33.00" arrival="89.00" arrivalLane="gneE6_0" arrivalPos="192.80" arrivalSpeed="16.48" duration="56.00" routeLength="583.13" waitingTime="0.00" waitingCount="0" stopTime="0.00" timeLoss="19.57" rerouteNo="0" devices="tripinfo_veh102" vType="CarA" speedFactor="0.97" vaporized=""/>
    <tripinfo id="veh78" depart="20.00" departLane="gneE7_0" departPos="5.10" departSpeed="0.00" departDelay="20.00" arrival="91.00" arrivalLane="gneE47_0" arrivalPos="92.80" arrivalSpeed="15.82" duration="71.00" routeLength="586.49" waitingTime="0.00" waitingCount="0" stopTime="0.00" timeLoss="35.26" rerouteNo="0" devices="tripinfo_veh78" vType="CarA" speedFactor="1.01" vaporized=""/>
    <tripinfo id="veh54" depart="10.00" departLane="gneE48_0" departPos="5.10" departSpeed="0.00" departDelay="10.00" arrival="96.00" arrivalLane="gneE39_0" arrivalPos="89.60" arrivalSpeed="16.30" duration="86.00" routeLength="870.90" waitingTime="0.00" waitingCount="0" stopTime="0.00" timeLoss="30.38" rerouteNo="0" devices="tripinfo_veh54" vType="CarA" speedFactor="1.00" vaporized=""/>
    <tripinfo id="veh93" depart="20.00" departLane="gneE46_0" departPos="5.10" departSpeed="0.00" departDelay="20.00" arrival="105.00" arrivalLane="gneE57_0" arrivalPos="92.80" arrivalSpeed="15.80" duration="85.00" routeLength="486.42" waitingTime="22.00" waitingCount="1" stopTime="0.00" timeLoss="54.59" rerouteNo="0" devices="tripinfo_veh93" vType="CarA" speedFactor="0.92" vaporized=""/>
    <tripinfo id="veh81" depart="5.00" departLane="gneE40_0" departPos="5.10" departSpeed="0.00" departDelay="5.00" arrival="107.00" arrivalLane="gneE21_0" arrivalPos="189.60" arrivalSpeed="15.96" duration="102.00" routeLength="681.68" waitingTime="22.00" waitingCount="1" stopTime="0.00" timeLoss="59.40" rerouteNo="0" devices="tripinfo_veh81" vType="CarA" speedFactor="1.00" vaporized=""/>
    <tripinfo id="veh76" depart="10.00" departLane="gneE7_0" departPos="5.10" departSpeed="0.00" departDelay="10.00" arrival="108.00" arrivalLane="gneE54_0" arrivalPos="96.80" arrivalSpeed="10.62" duration="98.00" routeLength="478.56" waitingTime="20.00" waitingCount="2" stopTime="0.00" timeLoss="67.37" rerouteNo="0" devices="tripinfo_veh76" vType="CarA" speedFactor="1.03" vaporized=""/>
    <tripinfo id="veh0" depart="0.00" departLane="gneE0_0" departPos="5.10" departSpeed="0.00" departDelay="0.00" arrival="111.00" arrivalLane="gneE2_0" arrivalPos="405.29" arrivalSpeed="16.43" duration="111.00" routeLength="1594.89" waitingTime="0.00" waitingCount="0" stopTime="0.00" timeLoss="14.68" rerouteNo="0" devices="tripinfo_veh0" vType="CarA" speedFactor="1.06" vaporized=""/>
    <tripinfo id="veh80" depart="30.00" departLane="gneE7_0" departPos="5.10" departSpeed="0.00" departDelay="30.00" arrival="112.00" arrivalLane="gneE43_0" arrivalPos="89.60" arrivalSpeed="13.98" duration="82.00" routeLength="496.09" waitingTime="19.00" waitingCount="1" stopTime="0.00" timeLoss="50.95" rerouteNo="0" devices="tripinfo_veh80" vType="CarA" speedFactor="1.03" vaporized=""/>
    <tripinfo id="veh91" depart="10.00" departLane="gneE46_0" departPos="5.10" departSpeed="0.00" departDelay="10.00" arrival="114.00" arrivalLane="gneE6_1" arrivalPos="192.80" arrivalSpeed="16.63" duration="104.00" routeLength="894.64" waitingTime="8.00" waitingCount="1" stopTime="0.00" timeLoss="46.86" rerouteNo="0" devices="tripinfo_veh91" vType="CarA" speedFactor="0.89" vaporized=""/>
    <tripinfo id="veh16" depart="5.00" departLane="gneE0_0" departPos="5.10" departSpeed="0.00" departDelay="5.00" arrival="115.00" arrivalLane="gneE2_0" arrivalPos="405.29" arrivalSpeed="16.57" duration="110.00" routeLength="1594.89" waitingTime="0.00" waitingCount="0" stopTime="0.00" timeLoss="14.22" rerouteNo="0" devices="tripinfo_veh16" vType="CarA" speedFactor="0.88" vaporized=""/>
    <tripinfo id="veh147" depart="25.00" departLane="gneE40_0" departPos="5.10" departSpeed="0.00" departDelay="25.00" arrival="116.00" arrivalLane="gneE57_0" arrivalPos="92.80" arrivalSpeed="16.61" duration="91.00" routeLength="694.04" waitingTime="11.00" waitingCount="2" stopTime="0.00" timeLoss="48.36" rerouteNo="0" devices="tripinfo_veh147" vType="CarA" speedFactor="1.00" vaporized=""/>
    <tripinfo id="veh82" depart="10.00" departLane="gneE40_0" departPos="5.10" departSpeed="0.00" departDelay="10.00" arrival="117.00" arrivalLane="gneE63_0" arrivalPos="92.80" arrivalSpeed="16.51" duration="107.00" routeLength="678.45" waitingTime="26.00" waitingCount="1" stopTime="0.00" timeLoss="63.43" rerouteNo="0" devices="tripinfo_veh82" vType="CarA" speedFactor="1.02" vaporized=""/>
    <tripinfo id="veh113" depart="48.00" departLane="gneE16_0" departPos="5.10" departSpeed="0.00" departDelay="48.00" arrival="118.00" arrivalLane="gneE66_0" arrivalPos="96.80" arrivalSpeed="12.19" duration="70.00" routeLength="490.12" waitingTime="2.00" waitingCount="1" stopTime="0.00" timeLoss="37.50" rerouteNo="0" devices="tripinfo_veh113" vType="CarA" speedFactor="1.01" vaporized=""/>
    <tripinfo id="veh31" depart="5.00" departLane="gneE86_0" departPos="5.10" departSpeed="0.00" departDelay="5.00" arrival="120.00" arrivalLane="gneE6_0" arrivalPos="192.80" arrivalSpeed="16.48" duration="115.00" routeLength="678.56" waitingTime="25.00" waitingCount="2" stopTime="0.00" timeLoss="72.50" rerouteNo="0" devices="tripinfo_veh31" vType="CarA" speedFactor="1.15" vaporized=""/>
    <tripinfo id="veh53" depart="5.00" departLane="gneE48_0" departPos="5.10" departSpeed="0.00" departDelay="5.00" arrival="124.00" arrivalLane="gneE85_0" arrivalPos="96.80" arrivalSpeed="13.00" duration="119.00" routeLength="1262.09" waitingTime="0.00" waitingCount="0" stopTime="0.00" timeLoss="39.75" rerouteNo="0" devices="tripinfo_veh53" vType="CarA" speedFactor="1.10" vaporized=""/>
    <tripinfo id="veh57" depart="5.00" departLane="gneE58_0" departPos="5.10" departSpeed="0.00" departDelay="5.00" arrival="135.00" arrivalLane="gneE21_0" arrivalPos="189.60" arrivalSpeed="16.39" duration="130.00" routeLength="396.09" waitingTime="78.00" waitingCount="1" stopTime="0.00" timeLoss="105.27" rerouteNo="0" devices="tripinfo_veh57" vType="CarA" speedFactor="1.14" vaporized=""/>
    <tripinfo id="veh30" depart="22.00" departLane="gneE84_0" departPos="5.10" departSpeed="0.00" departDelay="22.00" arrival="136.00" arrivalLane="gneE54_0" arrivalPos="96.80" arrivalSpeed="12.01" duration="114.00" routeLength="1077.43" waitingTime="0.00" waitingCount="0" stopTime="0.00" timeLoss="47.55" rerouteNo="0" devices="tripinfo_veh30" vType="CarA" speedFactor="1.18" vaporized=""/>
    <tripinfo id="veh61" depart="26.00" departLane="gneE58_0" departPos="5.10" departSpeed="0.00" departDelay="26.00" arrival="136.00" arrivalLane="gneE39_0" arrivalPos="89.60" arrivalSpeed="16.61" duration="110.00" routeLength="683.58" waitingTime="31.00" waitingCount="1" stopTime="0.00" timeLoss="68.05" rerouteNo="0" devices="tripinfo_veh61" vType="CarA" speedFactor="1.12" vaporized=""/>
    <tripinfo id="veh70" depart="5.00" departLane="gneE61_0" departPos="5.10" departSpeed="0.00" departDelay="5.00" arrival="140.00" arrivalLane="gneE21_0" arrivalPos="189.60" arrivalSpeed="16.42" duration="135.00" routeLength="491.52" waitingTime="61.00" waitingCount="2" stopTime="0.00" timeLoss="102.98" rerouteNo="0" devices="tripinfo_veh70" vType="CarA" speedFactor="1.02" vaporized=""/>
    <tripinfo id="veh37" depart="10.00" departLane="gneE64_0" departPos="5.10" departSpeed="0.00" departDelay="10.00" arrival="153.00" arrivalLane="gneE6_0" arrivalPos="192.80" arrivalSpeed="16.50" duration="143.00" routeLength="386.33" waitingTime="89.00" waitingCount="1" stopTime="0.00" timeLoss="118.69" rerouteNo="0" devices="tripinfo_veh37" vType="CarA" speedFactor="1.18" vaporized=""/>
    <tripinfo id="veh92" depart="15.00" departLane="gneE46_0" departPos="5.10" departSpeed="0.00" departDelay="15.00" arrival="158.00" arrivalLane="gneE63_0" arrivalPos="92.80" arrivalSpeed="15.51" duration="143.00" routeLength="886.07" waitingTime="35.00" waitingCount="2" stopTime="0.00" timeLoss="86.47" rerouteNo="0" devices="tripinfo_veh92" vType="CarA" speedFactor="0.83" vaporized=""/>
    <tripinfo id="veh146" depart="20.00" departLane="gneE40_0" departPos="5.10" departSpeed="0.00" departDelay="20.00" arrival="161.00" arrivalLane="gneE63_0" arrivalPos="92.80" arrivalSpeed="16.14" duration="141.00" routeLength="678.45" waitingTime="37.00" waitingCount="2" stopTime="0.00" timeLoss="96.21" rerouteNo="0" devices="tripinfo_veh146" vType="CarA" speedFactor="0.89" vaporized=""/>
    <tripinfo id="veh50" depart="32.00" departLane="gneE16_0" departPos="5.10" departSpeed="0.00" departDelay="32.00" arrival="167.00" arrivalLane="gneE41_0" arrivalPos="89.60" arrivalSpeed="12.21" duration="135.00" routeLength="683.13" waitingTime="55.00" waitingCount="1" stopTime="0.00" timeLoss="92.81" rerouteNo="0" devices="tripinfo_veh50" vType="CarA" speedFactor="0.85" vaporized=""/>
    <tripinfo id="veh47" depart="16.00" departLane="gneE16_0" departPos="5.10" departSpeed="0.00" departDelay="16.00" arrival="178.00" arrivalLane="gneE73_0" arrivalPos="92.80" arrivalSpeed="15.73" duration="162.00" routeLength="596.09" waitingTime="93.00" waitingCount="1" stopTime="0.00" timeLoss="125.08" rerouteNo="0" devices="tripinfo_veh47" vType="CarA" speedFactor="0.90" vaporized=""/>
    <tripinfo id="veh114" depart="53.00" departLane="gneE16_0" departPos="5.10" departSpeed="0.00" departDelay="53.00" arrival="180.00" arrivalLane="gneE73_0" arrivalPos="92.80" arrivalSpeed="16.13" duration="127.00" routeLength="596.09" waitingTime="47.00" waitingCount="2" stopTime="0.00" timeLoss="90.55" rerouteNo="0" devices="tripinfo_veh114" vType="CarA" speedFactor="1.10" vaporized=""/>
    <tripinfo id="veh51" depart="37.00" departLane="gneE16_0" departPos="5.10" departSpeed="0.00" departDelay="37.00" arrival="185.00" arrivalLane="gneE43_0" arrivalPos="89.60" arrivalSpeed="13.20" duration="148.00" routeLength="862.29" waitingTime="52.00" waitingCount="1" stopTime="0.00" timeLoss="93.48" rerouteNo="0" devices="tripinfo_veh51" vType="CarA" speedFactor="1.17" vaporized=""/>
    <tripinfo id="veh121" depart="20.00" departLane="gneE48_0" departPos="5.10" departSpeed="0.00" departDelay="20.00" arrival="187.00" arrivalLane="gneE43_0" arrivalPos="89.60" arrivalSpeed="13.43" duration="167.00" routeLength="682.38" waitingTime="75.00" waitingCount="2" stopTime="0.00" timeLoss="124.37" rerouteNo="0" devices="tripinfo_veh121" vType="CarA" speedFactor="1.10" vaporized=""/>
    <tripinfo id="veh40" depart="5.00" departLane="gneE67_0" departPos="5.10" departSpeed="0.00" departDelay="5.00" arrival="190.00" arrivalLane="gneE6_0" arrivalPos="192.80" arrivalSpeed="16.38" duration="185.00" routeLength="482.30" waitingTime="113.00" waitingCount="2" stopTime="0.00" timeLoss="153.79" rerouteNo="0" devices="tripinfo_veh40" vType="CarA" speedFactor="1.03" vaporized=""/>
    <tripinfo id="veh118" depart="73.00" departLane="gneE16_0" departPos="5.10" departSpeed="0.00" departDelay="73.00" arrival="195.00" arrivalLane="gneE43_0" arrivalPos="89.60" arrivalSpeed="12.71" duration="122.00" routeLength="862.29" waitingTime="23.00" waitingCount="1" stopTime="0.00" timeLoss="67.72" rerouteNo="0" devices="tripinfo_veh118" vType="CarA" speedFactor="0.99" vaporized=""/>
    <tripinfo id="veh152" depart="87.00" departLane="gneE0_0" departPos="5.10" departSpeed="0.00" departDelay="72.00" arrival="197.00" arrivalLane="gneE2_0" arrivalPos="405.29" arrivalSpeed="16.31" duration="110.00" routeLength="1594.89" waitingTime="0.00" waitingCount="0" stopTime="0.00" timeLoss="14.30" rerouteNo="0" devices="tripinfo_veh152" vType="CarA" speedFactor="1.07" vaporized=""/>
    <tripinfo id="veh119" depart="78.00" departLane="gneE16_0" departPos="5.10" departSpeed="0.00" departDelay="78.00" arrival="197.00" arrivalLane="gneE45_0" arrivalPos="89.60" arrivalSpeed="13.95" duration="119.00" routeLength="871.65" waitingTime="20.00" waitingCount="1" stopTime="0.00" timeLoss="65.20" rerouteNo="0" devices="tripinfo_veh119" vType="CarA" speedFactor="1.07" vaporized=""/>
    <tripinfo id="veh155" depart="92.00" departLane="gneE0_0" departPos="5.10" departSpeed="0.00" departDelay="62.00" arrival="202.00" arrivalLane="gneE2_0" arrivalPos="405.29" arrivalSpeed="16.58" duration="110.00" routeLength="1594.89" waitingTime="0.00" waitingCount="0" stopTime="0.00" timeLoss="14.13" rerouteNo="0" devices="tripinfo_veh155" vType="CarA" speedFactor="1.12" vaporized=""/>
    <tripinfo id="veh159" depart="97.00" departLane="gneE0_0" departPos="5.10" departSpeed="0.00" departDelay="37.00" arrival="207.00" arrivalLane="gneE2_0" arrivalPos="405.29" arrivalSpeed="16.42" duration="110.00" routeLength="1594.89" waitingTime="0.00" waitingCount="0" stopTime="0.00" timeLoss="14.03" rerouteNo="0" devices="tripinfo_veh159" vType="CarA" speedFactor="1.14" vaporized=""/>
    <tripinfo id="veh162" depart="102.00" departLane="gneE0_0" departPos="5.10" departSpeed="0.00" departDelay="27.00" arrival="212.00" arrivalLane="gneE2_0" arrivalPos="405.29" arrivalSpeed="16.34" duration="110.00" routeLength="1594.89" waitingTime="0.00" waitingCount="0" stopTime="0.00" timeLoss="13.68" rerouteNo="0" devices="tripinfo_veh162" vType="CarA" speedFactor="0.99" vaporized=""/>
    <tripinfo id="veh175" depart="107.00" departLane="gneE0_0" departPos="5.10" departSpeed="0.00" departDelay="7.00" arrival="217.00" arrivalLane="gneE2_0" arrivalPos="405.29" arrivalSpeed="16.45" duration="110.00" routeLength="1594.89" waitingTime="0.00" waitingCount="0" stopTime="0.00" timeLoss="14.07" rerouteNo="0" devices="tripinfo_veh175" vType="CarA" speedFactor="0.92" vaporized=""/>
    <tripinfo id="veh122" depart="25.00" departLane="gneE48_0" departPos="5.10" departSpeed="0.00" departDelay="25.00" arrival="217.00" arrivalLane="gneE45_0" arrivalPos="89.60" arrivalSpeed="10.70" duration="192.00" routeLength="680.94" waitingTime="90.00" waitingCount="3" stopTime="0.00" timeLoss="148.46" rerouteNo="0" devices="tripinfo_veh122" vType="CarA" speedFactor="1.03" vaporized=""/>
    <tripinfo id="veh2" depart="0.00" departLane="gneE7_0" departPos="5.10" departSpeed="0.00" departDelay="0.00" arrival="221.00" arrivalLane="gneE2_1" arrivalPos="405.29" arrivalSpeed="16.54" duration="221.00" routeLength="1265.10" waitingTime="99.00" waitingCount="1" stopTime="0.00" timeLoss="144.01" rerouteNo="0" devices="tripinfo_veh2" vType="CarA" speedFactor="1.01" vaporized=""/>
    <tripinfo id="veh52" depart="0.00" departLane="gneE48_0" departPos="5.10" departSpeed="0.00" departDelay="0.00" arrival="222.00" arrivalLane="gneE2_0" arrivalPos="405.29" arrivalSpeed="16.47" duration="222.00" routeLength="1056.37" waitingTime="118.00" waitingCount="1" stopTime="0.00" timeLoss="157.13" rerouteNo="0" devices="tripinfo_veh52" vType="CarA" speedFactor="1.02" vaporized=""/>
    <tripinfo id="veh177" depart="112.00" departLane="gneE0_0" departPos="5.10" departSpeed="0.00" departDelay="12.00" arrival="222.00" arrivalLane="gneE2_2" arrivalPos="405.29" arrivalSpeed="16.50" duration="110.00" routeLength="1594.89" waitingTime="0.00" waitingCount="0" stopTime="0.00" timeLoss="14.00" rerouteNo="0" devices="tripinfo_veh177" vType="CarA" speedFactor="1.03" vaporized=""/>
    <tripinfo id="veh169" depart="100.00" departLane="gneE48_0" departPos="5.10" departSpeed="0.00" departDelay="0.00" arrival="225.00" arrivalLane="gneE2_0" arrivalPos="405.29" arrivalSpeed="16.56" duration="125.00" routeLength="1056.37" waitingTime="18.00" waitingCount="1" stopTime="0.00" timeLoss="59.27" rerouteNo="0" devices="tripinfo_veh169" vType="CarA" speedFactor="0.94" vaporized=""/>
    <tripinfo id="veh86" depart="16.00" departLane="gneE42_0" departPos="5.10" departSpeed="0.00" departDelay="16.00" arrival="225.00" arrivalLane="gneE73_0" arrivalPos="92.80" arrivalSpeed="16.15" duration="209.00" routeLength="495.06" waitingTime="132.00" waitingCount="3" stopTime="0.00" timeLoss="178.72" rerouteNo="0" devices="tripinfo_veh86" vType="CarA" speedFactor="1.00" vaporized=""/>
    <tripinfo id="veh8" depart="0.00" departLane="gneE51_0" departPos="5.10" departSpeed="0.00" departDelay="0.00" arrival="226.00" arrivalLane="gneE2_0" arrivalPos="405.29" arrivalSpeed="16.66" duration="226.00" routeLength="1152.34" waitingTime="88.00" waitingCount="3" stopTime="0.00" timeLoss="154.47" rerouteNo="0" devices="tripinfo_veh8" vType="CarA" speedFactor="0.94" vaporized=""/>
    <tripinfo id="veh170" depart="100.00" departLane="gneE51_0" departPos="5.10" departSpeed="0.00" departDelay="0.00" arrival="227.00" arrivalLane="gneE2_1" arrivalPos="405.29" arrivalSpeed="16.65" duration="127.00" routeLength="1152.34" waitingTime="4.00" waitingCount="1" stopTime="0.00" timeLoss="54.93" rerouteNo="0" devices="tripinfo_veh170" vType="CarA" speedFactor="1.09" vaporized=""/>
    <tripinfo id="veh79" depart="25.00" departLane="gneE7_0" departPos="5.10" departSpeed="0.00" departDelay="25.00" arrival="228.00" arrivalLane="gneE73_0" arrivalPos="92.80" arrivalSpeed="16.41" duration="203.00" routeLength="983.03" waitingTime="90.00" waitingCount="2" stopTime="0.00" timeLoss="141.67" rerouteNo="0" devices="tripinfo_veh79" vType="CarA" speedFactor="1.09" vaporized=""/>
    <tripinfo id="veh58" depart="10.00" departLane="gneE58_0" departPos="5.10" departSpeed="0.00" departDelay="10.00" arrival="229.00" arrivalLane="gneE73_0" arrivalPos="92.80" arrivalSpeed="15.82" duration="219.00" routeLength="982.00" waitingTime="102.00" waitingCount="2" stopTime="0.00" timeLoss="158.22" rerouteNo="0" devices="tripinfo_veh58" vType="CarA" speedFactor="1.02" vaporized=""/>
    <tripinfo id="veh56" depart="10.00" departLane="gneE51_0" departPos="5.10" departSpeed="0.00" departDelay="10.00" arrival="230.00" arrivalLane="gneE43_0" arrivalPos="89.60" arrivalSpeed="14.10" duration="220.00" routeLength="778.35" waitingTime="94.00" waitingCount="4" stopTime="0.00" timeLoss="168.12" rerouteNo="0" devices="tripinfo_veh56" vType="CarA" speedFactor="0.90" vaporized=""/>
    <tripinfo id="veh83" depart="15.00" departLane="gneE40_0" departPos="5.10" departSpeed="0.00" departDelay="15.00" arrival="231.00" arrivalLane="gneE47_0" arrivalPos="92.80" arrivalSpeed="15.79" duration="216.00" routeLength="886.07" waitingTime="99.00" waitingCount="3" stopTime="0.00" timeLoss="159.66" rerouteNo="0" devices="tripinfo_veh83" vType="CarA" speedFactor="0.97" vaporized=""/>
    <tripinfo id="veh103" depart="38.00" departLane="gneE84_0" departPos="5.10" departSpeed="0.00" departDelay="38.00" arrival="234.00" arrivalLane="gneE47_0" arrivalPos="92.80" arrivalSpeed="16.52" duration="196.00" routeLength="1174.46" waitingTime="61.00" waitingCount="1" stopTime="0.00" timeLoss="121.40" rerouteNo="0" devices="tripinfo_veh103" vType="CarA" speedFactor="0.95" vaporized=""/>
    <tripinfo id="veh105" depart="35.00" departLane="gneE86_0" departPos="5.10" departSpeed="0.00" departDelay="35.00" arrival="235.00" arrivalLane="gneE47_0" arrivalPos="92.80" arrivalSpeed="16.24" duration="200.00" routeLength="1269.89" waitingTime="25.00" waitingCount="5" stopTime="0.00" timeLoss="119.58" rerouteNo="0" devices="tripinfo_veh105" vType="CarA" speedFactor="1.07" vaporized=""/>
    <tripinfo id="veh120" depart="15.00" departLane="gneE48_0" departPos="5.10" departSpeed="0.00" departDelay="15.00" arrival="236.00" arrivalLane="gneE73_0" arrivalPos="92.80" arrivalSpeed="16.48" duration="221.00" routeLength="1169.32" waitingTime="83.00" waitingCount="2" stopTime="0.00" timeLoss="147.29" rerouteNo="0" devices="tripinfo_veh120" vType="CarA" speedFactor="0.94" vaporized=""/>
    <tripinfo id="veh182" depart="127.00" departLane="gneE0_0" departPos="5.10" departSpeed="0.00" departDelay="22.00" arrival="238.00" arrivalLane="gneE2_0" arrivalPos="405.29" arrivalSpeed="16.63" duration="111.00" routeLength="1594.89" waitingTime="0.00" waitingCount="0" stopTime="0.00" timeLoss="14.69" rerouteNo="0" devices="tripinfo_veh182" vType="CarA" speedFactor="1.03" vaporized=""/>
    <tripinfo id="veh88" depart="26.00" departLane="gneE42_0" departPos="5.10" departSpeed="0.00" departDelay="26.00" arrival="238.00" arrivalLane="gneE47_0" arrivalPos="92.80" arrivalSpeed="16.48" duration="212.00" routeLength="884.62" waitingTime="89.00" waitingCount="4" stopTime="0.00" timeLoss="155.41" rerouteNo="0" devices="tripinfo_veh88" vType="CarA" speedFactor="1.01" vaporized=""/>
    <tripinfo id="veh123" depart="30.00" departLane="gneE48_0" departPos="5.10" departSpeed="0.00" departDelay="30.00" arrival="239.00" arrivalLane="gneE39_0" arrivalPos="89.60" arrivalSpeed="16.47" duration="209.00" routeLength="870.90" waitingTime="93.00" waitingCount="3" stopTime="0.00" timeLoss="153.81" rerouteNo="0" devices="tripinfo_veh123" vType="CarA" speedFactor="1.02" vaporized=""/>
    <tripinfo id="veh145" depart="45.00" departLane="gneE7_0" departPos="5.10" departSpeed="0.00" departDelay="45.00" arrival="241.00" arrivalLane="gneE43_0" arrivalPos="89.60" arrivalSpeed="13.48" duration="196.00" routeLength="496.09" waitingTime="124.00" waitingCount="2" stopTime="0.00" timeLoss="165.48" rerouteNo="0" devices="tripinfo_veh145" vType="CarA" speedFactor="1.14" vaporized=""/>
    <tripinfo id="veh184" depart="132.00" departLane="gneE0_0" departPos="5.10" departSpeed="0.00" departDelay="12.00" arrival="242.00" arrivalLane="gneE2_0" arrivalPos="405.29" arrivalSpeed="16.61" duration="110.00" routeLength="1594.89" waitingTime="0.00" waitingCount="0" stopTime="0.00" timeLoss="13.55" rerouteNo="0" devices="tripinfo_veh184" vType="CarA" speedFactor="0.94" vaporized=""/>
    <tripinfo id="veh26" depart="57.00" departLane="gneE0_0" departPos="5.10" departSpeed="0.00" departDelay="57.00" arrival="248.00" arrivalLane="gneE47_0" arrivalPos="92.80" arrivalSpeed="16.23" duration="191.00" routeLength="1458.68" waitingTime="59.00" waitingCount="2" stopTime="0.00" timeLoss="100.38" rerouteNo="0" devices="tripinfo_veh26" vType="CarA" speedFactor="0.92" vaporized=""/>
    <tripinfo id="veh29" depart="16.00" departLane="gneE84_0" departPos="5.10" departSpeed="0.00" departDelay="16.00" arrival="258.00" arrivalLane="gneE57_0" arrivalPos="92.80" arrivalSpeed="15.83" duration="242.00" routeLength="982.43" waitingTime="119.00" waitingCount="1" stopTime="0.00" timeLoss="181.40" rerouteNo="0" devices="tripinfo_veh29" vType="CarA" speedFactor="0.93" vaporized=""/>
    <tripinfo id="veh189" depart="150.00" departLane="gneE0_0" departPos="5.10" departSpeed="0.00" departDelay="0.00" arrival="260.00" arrivalLane="gneE2_0" arrivalPos="405.29" arrivalSpeed="16.67" duration="110.00" routeLength="1594.89" waitingTime="0.00" waitingCount="0" stopTime="0.00" timeLoss="14.45" rerouteNo="0" devices="tripinfo_veh189" vType="CarA" speedFactor="0.97" vaporized=""/>
    <tripinfo id="veh85" depart="10.00" departLane="gneE42_0" departPos="5.10" departSpeed="0.00" departDelay="10.00" arrival="260.00" arrivalLane="gneE21_0" arrivalPos="189.60" arrivalSpeed="16.22" duration="250.00" routeLength="680.23" waitingTime="153.00" waitingCount="3" stopTime="0.00" timeLoss="205.79" rerouteNo="0" devices="tripinfo_veh85" vType="CarA" speedFactor="0.98" vaporized=""/>
    <tripinfo id="veh128" depart="36.00" departLane="gneE58_0" departPos="5.10" departSpeed="0.00" departDelay="36.00" arrival="268.00" arrivalLane="gneE6_1" arrivalPos="192.80" arrivalSpeed="15.54" duration="232.00" routeLength="1183.03" waitingTime="89.00" waitingCount="3" stopTime="0.00" timeLoss="159.13" rerouteNo="0" devices="tripinfo_veh128" vType="CarA" speedFactor="1.12" vaporized=""/>
    <tripinfo id="veh84" depart="5.00" departLane="gneE42_0" departPos="5.10" departSpeed="0.00" departDelay="5.00" arrival="268.00" arrivalLane="gneE6_0" arrivalPos="192.80" arrivalSpeed="16.18" duration="263.00" routeLength="696.09" waitingTime="154.00" waitingCount="4" stopTime="0.00" timeLoss="220.40" rerouteNo="0" devices="tripinfo_veh84" vType="CarA" speedFactor="1.15" vaporized=""/>
    <tripinfo id="veh150" depart="41.00" departLane="gneE42_0" departPos="5.10" departSpeed="0.00" departDelay="41.00" arrival="270.00" arrivalLane="gneE6_1" arrivalPos="192.80" arrivalSpeed="16.31" duration="229.00" routeLength="696.09" waitingTime="118.00" waitingCount="5" stopTime="0.00" timeLoss="185.84" rerouteNo="0" devices="tripinfo_veh150" vType="CarA" speedFactor="0.96" vaporized=""/>
    <tripinfo id="veh87" depart="21.00" departLane="gneE42_0" departPos="5.10" departSpeed="0.00" departDelay="21.00" arrival="270.00" arrivalLane="gneE63_0" arrivalPos="92.80" arrivalSpeed="15.86" duration="249.00" routeLength="687.52" waitingTime="142.00" waitingCount="4" stopTime="0.00" timeLoss="206.41" rerouteNo="0" devices="tripinfo_veh87" vType="CarA" speedFactor="1.04" vaporized=""/>
    <tripinfo id="veh62" depart="5.00" departLane="gneE55_0" departPos="5.10" departSpeed="0.00" departDelay="5.00" arrival="279.00" arrivalLane="gneE47_0" arrivalPos="92.80" arrivalSpeed="16.21" duration="274.00" routeLength="667.33" waitingTime="180.00" waitingCount="2" stopTime="0.00" timeLoss="230.15" rerouteNo="0" devices="tripinfo_veh62" vType="CarA" speedFactor="1.02" vaporized=""/>
    <tripinfo id="veh192" depart="180.00" departLane="gneE0_0" departPos="5.10" departSpeed="0.00" departDelay="0.00" arrival="290.00" arrivalLane="gneE2_0" arrivalPos="405.29" arrivalSpeed="16.36" duration="110.00" routeLength="1594.89" waitingTime="0.00" waitingCount="0" stopTime="0.00" timeLoss="14.11" rerouteNo="0" devices="tripinfo_veh192" vType="CarA" speedFactor="1.10" vaporized=""/>
    <tripinfo id="veh59" depart="15.00" departLane="gneE58_0" departPos="5.10" departSpeed="0.00" departDelay="15.00" arrival="291.00" arrivalLane="gneE70_0" arrivalPos="96.80" arrivalSpeed="11.40" duration="276.00" routeLength="1270.43" waitingTime="109.00" waitingCount="3" stopTime="0.00" timeLoss="195.30" rerouteNo="0" devices="tripinfo_veh59" vType="CarA" speedFactor="0.97" vaporized=""/>
    <tripinfo id="veh10" depart="0.00" departLane="gneE55_0" departPos="5.10" departSpeed="0.00" departDelay="0.00" arrival="297.00" arrivalLane="gneE2_0" arrivalPos="405.29" arrivalSpeed="16.46" duration="297.00" routeLength="1345.94" waitingTime="143.00" waitingCount="3" stopTime="0.00" timeLoss="213.95" rerouteNo="0" devices="tripinfo_veh10" vType="CarA" speedFactor="1.09" vaporized=""/>
    <tripinfo id="veh116" depart="63.00" departLane="gneE16_0" departPos="5.10" departSpeed="0.00" departDelay="63.00" arrival="299.00" arrivalLane="gneE50_0" arrivalPos="96.80" arrivalSpeed="12.21" duration="236.00" routeLength="1458.50" waitingTime="63.00" waitingCount="2" stopTime="0.00" timeLoss="144.73" rerouteNo="0" devices="tripinfo_veh116" vType="CarA" speedFactor="1.18" vaporized=""/>