<?xml version="1.0" encoding="UTF-8"?>

<!-- generated on Thu Nov  1 14:28:24 2018 by Eclipse SUMO Version 1.0.0
<configuration xmlns:xsi="http://www.w3.org/2001/XMLSchema-instance" xsi:noNamespaceSchemaLocation="http://sumo.dlr.de/xsd/sumoConfiguration.xsd">

    <input>
        <net-file value="data/CustomNet.net.xml"/>
        <route-files value="data/CustomNet.rou.xml"/>
        <additional-files value="data/CustomNetAdditionals2.xml"/>
    </input>

    <output>
        <tripinfo-output value="tripinfo.xml"/>
    </output>

    <processing>
        <time-to-teleport value="-1"/>
    </processing>

    <traci_server>
        <remote-port value="58957"/>
    </traci_server>

</configuration>
-->

<tripinfos xmlns:xsi="http://www.w3.org/2001/XMLSchema-instance" xsi:noNamespaceSchemaLocation="http://sumo.dlr.de/xsd/tripinfo_file.xsd">
    <tripinfo id="veh52" depart="16.00" departLane="gneE16_0" departPos="5.10" departSpeed="0.00" departDelay="16.00" arrival="58.00" arrivalLane="gneE63_0" arrivalPos="92.80" arrivalSpeed="16.60" duration="42.00" routeLength="394.15" waitingTime="0.00" waitingCount="0" stopTime="0.00" timeLoss="16.81" rerouteNo="0" devices="tripinfo_veh52" vType="CarA" speedFactor="1.02" vaporized=""/>
    <tripinfo id="veh80" depart="10.00" departLane="gneE7_0" departPos="5.10" departSpeed="0.00" departDelay="10.00" arrival="68.00" arrivalLane="gneE57_0" arrivalPos="92.80" arrivalSpeed="16.55" duration="58.00" routeLength="383.56" waitingTime="5.00" waitingCount="1" stopTime="0.00" timeLoss="33.43" rerouteNo="0" devices="tripinfo_veh80" vType="CarA" speedFactor="1.03" vaporized=""/>
    <tripinfo id="veh53" depart="21.00" departLane="gneE16_0" departPos="5.10" departSpeed="0.00" departDelay="21.00" arrival="79.00" arrivalLane="gneE66_0" arrivalPos="96.80" arrivalSpeed="12.43" duration="58.00" routeLength="490.12" waitingTime="0.00" waitingCount="0" stopTime="0.00" timeLoss="25.91" rerouteNo="0" devices="tripinfo_veh53" vType="CarA" speedFactor="1.10" vaporized=""/>
    <tripinfo id="veh81" depart="15.00" departLane="gneE7_0" departPos="5.10" departSpeed="0.00" departDelay="15.00" arrival="84.00" arrivalLane="gneE60_0" arrivalPos="96.80" arrivalSpeed="11.98" duration="69.00" routeLength="475.90" waitingTime="2.00" waitingCount="1" stopTime="0.00" timeLoss="38.73" rerouteNo="0" devices="tripinfo_veh81" vType="CarA" speedFactor="1.00" vaporized=""/>
    <tripinfo id="veh94" depart="10.00" departLane="gneE46_0" departPos="5.10" departSpeed="0.00" departDelay="10.00" arrival="86.00" arrivalLane="gneE57_0" arrivalPos="92.80" arrivalSpeed="16.30" duration="76.00" routeLength="486.42" waitingTime="14.00" waitingCount="1" stopTime="0.00" timeLoss="45.54" rerouteNo="0" devices="tripinfo_veh94" vType="CarA" speedFactor="1.09" vaporized=""/>
    <tripinfo id="veh157" depart="15.00" departLane="gneE46_0" departPos="5.10" departSpeed="0.00" departDelay="15.00" arrival="87.00" arrivalLane="gneE57_0" arrivalPos="92.80" arrivalSpeed="15.58" duration="72.00" routeLength="486.42" waitingTime="11.00" waitingCount="1" stopTime="0.00" timeLoss="42.28" rerouteNo="0" devices="tripinfo_veh157" vType="CarA" speedFactor="1.08" vaporized=""/>
    <tripinfo id="veh99" depart="26.00" departLane="gneE44_0" departPos="5.10" departSpeed="0.00" departDelay="26.00" arrival="89.00" arrivalLane="gneE57_0" arrivalPos="92.80" arrivalSpeed="16.67" duration="63.00" routeLength="495.49" waitingTime="7.00" waitingCount="1" stopTime="0.00" timeLoss="32.85" rerouteNo="0" devices="tripinfo_veh99" vType="CarA" speedFactor="1.10" vaporized=""/>
    <tripinfo id="veh96" depart="10.00" departLane="gneE44_0" departPos="5.10" departSpeed="0.00" departDelay="10.00" arrival="90.00" arrivalLane="gneE21_0" arrivalPos="189.60" arrivalSpeed="16.57" duration="80.00" routeLength="483.13" waitingTime="10.00" waitingCount="2" stopTime="0.00" timeLoss="49.97" rerouteNo="0" devices="tripinfo_veh96" vType="CarA" speedFactor="1.01" vaporized=""/>
    <tripinfo id="veh8" depart="0.00" departLane="gneE48_0" departPos="5.10" departSpeed="0.00" departDelay="0.00" arrival="95.00" arrivalLane="gneE2_0" arrivalPos="405.29" arrivalSpeed="16.64" duration="95.00" routeLength="1056.37" waitingTime="0.00" waitingCount="0" stopTime="0.00" timeLoss="29.21" rerouteNo="0" devices="tripinfo_veh8" vType="CarA" speedFactor="0.94" vaporized=""/>
    <tripinfo id="veh119" depart="41.00" departLane="gneE16_0" departPos="5.10" departSpeed="0.00" departDelay="41.00" arrival="98.00" arrivalLane="gneE66_0" arrivalPos="96.80" arrivalSpeed="12.14" duration="57.00" routeLength="490.12" waitingTime="0.00" waitingCount="0" stopTime="0.00" timeLoss="25.36" rerouteNo="0" devices="tripinfo_veh119" vType="CarA" speedFactor="1.07" vaporized=""/>
    <tripinfo id="veh93" depart="5.00" departLane="gneE46_0" departPos="5.10" departSpeed="0.00" departDelay="5.00" arrival="99.00" arrivalLane="gneE73_0" arrivalPos="92.80" arrivalSpeed="16.36" duration="94.00" routeLength="693.61" waitingTime="12.00" waitingCount="1" stopTime="0.00" timeLoss="50.30" rerouteNo="0" devices="tripinfo_veh93" vType="CarA" speedFactor="0.92" vaporized=""/>
    <tripinfo id="veh67" depart="10.00" departLane="gneE58_0" departPos="5.10" departSpeed="0.00" departDelay="10.00" arrival="101.00" arrivalLane="gneE43_0" arrivalPos="89.60" arrivalSpeed="13.01" duration="91.00" routeLength="495.06" waitingTime="25.00" waitingCount="1" stopTime="0.00" timeLoss="60.99" rerouteNo="0" devices="tripinfo_veh67" vType="CarA" speedFactor="0.91" vaporized=""/>
    <tripinfo id="veh57" depart="5.00" departLane="gneE48_0" departPos="5.10" departSpeed="0.00" departDelay="5.00" arrival="103.00" arrivalLane="gneE2_0" arrivalPos="405.29" arrivalSpeed="16.60" duration="98.00" routeLength="1056.37" waitingTime="1.00" waitingCount="1" stopTime="0.00" timeLoss="33.35" rerouteNo="0" devices="tripinfo_veh57" vType="CarA" speedFactor="1.14" vaporized=""/>
    <tripinfo id="veh89" depart="20.00" departLane="gneE40_0" departPos="5.10" departSpeed="0.00" departDelay="20.00" arrival="103.00" arrivalLane="gneE73_0" arrivalPos="92.80" arrivalSpeed="16.35" duration="83.00" routeLength="485.99" waitingTime="20.00" waitingCount="1" stopTime="0.00" timeLoss="53.12" rerouteNo="0" devices="tripinfo_veh89" vType="CarA" speedFactor="1.02" vaporized=""/>
    <tripinfo id="veh97" depart="16.00" departLane="gneE44_0" departPos="5.10" departSpeed="0.00" departDelay="16.00" arrival="108.00" arrivalLane="gneE73_0" arrivalPos="92.80" arrivalSpeed="16.58" duration="92.00" routeLength="692.16" waitingTime="7.00" waitingCount="1" stopTime="0.00" timeLoss="48.23" rerouteNo="0" devices="tripinfo_veh97" vType="CarA" speedFactor="0.91" vaporized=""/>
    <tripinfo id="veh0" depart="0.00" departLane="gneE0_0" departPos="5.10" departSpeed="0.00" departDelay="0.00" arrival="111.00" arrivalLane="gneE2_0" arrivalPos="405.29" arrivalSpeed="16.67" duration="111.00" routeLength="1594.89" waitingTime="0.00" waitingCount="0" stopTime="0.00" timeLoss="14.59" rerouteNo="0" devices="tripinfo_veh0" vType="CarA" speedFactor="1.06" vaporized=""/>
    <tripinfo id="veh108" depart="36.00" departLane="gneE84_0" departPos="5.10" departSpeed="0.00" departDelay="36.00" arrival="112.00" arrivalLane="gneE6_0" arrivalPos="192.80" arrivalSpeed="16.47" duration="76.00" routeLength="583.13" waitingTime="11.00" waitingCount="1" stopTime="0.00" timeLoss="40.49" rerouteNo="0" devices="tripinfo_veh108" vType="CarA" speedFactor="1.06" vaporized=""/>
    <tripinfo id="veh17" depart="5.00" departLane="gneE0_0" departPos="5.10" departSpeed="0.00" departDelay="5.00" arrival="115.00" arrivalLane="gneE2_0" arrivalPos="405.29" arrivalSpeed="16.40" duration="110.00" routeLength="1594.89" waitingTime="0.00" waitingCount="0" stopTime="0.00" timeLoss="14.32" rerouteNo="0" devices="tripinfo_veh17" vType="CarA" speedFactor="0.94" vaporized=""/>
    <tripinfo id="veh124" depart="35.00" departLane="gneE48_0" departPos="5.10" departSpeed="0.00" departDelay="35.00" arrival="125.00" arrivalLane="gneE57_0" arrivalPos="92.80" arrivalSpeed="16.10" duration="90.00" routeLength="595.77" waitingTime="20.00" waitingCount="1" stopTime="0.00" timeLoss="52.54" rerouteNo="0" devices="tripinfo_veh124" vType="CarA" speedFactor="1.06" vaporized=""/>
    <tripinfo id="veh84" depart="30.00" departLane="gneE7_0" departPos="5.10" departSpeed="0.00" departDelay="30.00" arrival="152.00" arrivalLane="gneE45_0" arrivalPos="89.60" arrivalSpeed="11.53" duration="122.00" routeLength="494.65" waitingTime="48.00" waitingCount="2" stopTime="0.00" timeLoss="90.64" rerouteNo="0" devices="tripinfo_veh84" vType="CarA" speedFactor="1.15" vaporized=""/>
    <tripinfo id="veh9" depart="0.00" departLane="gneE51_0" departPos="5.10" departSpeed="0.00" departDelay="0.00" arrival="157.00" arrivalLane="gneE2_0" arrivalPos="405.29" arrivalSpeed="16.42" duration="157.00" routeLength="1152.34" waitingTime="37.00" waitingCount="1" stopTime="0.00" timeLoss="84.76" rerouteNo="0" devices="tripinfo_veh9" vType="CarA" speedFactor="0.86" vaporized=""/>
    <tripinfo id="veh85" depart="35.00" departLane="gneE7_0" departPos="5.10" departSpeed="0.00" departDelay="35.00" arrival="160.00" arrivalLane="gneE41_0" arrivalPos="89.60" arrivalSpeed="12.98" duration="125.00" routeLength="675.25" waitingTime="42.00" waitingCount="1" stopTime="0.00" timeLoss="82.18" rerouteNo="0" devices="tripinfo_veh85" vType="CarA" speedFactor="0.98" vaporized=""/>
    <tripinfo id="veh123" depart="30.00" departLane="gneE48_0" departPos="5.10" departSpeed="0.00" departDelay="30.00" arrival="163.00" arrivalLane="gneE21_0" arrivalPos="189.60" arrivalSpeed="16.34" duration="133.00" routeLength="594.31" waitingTime="60.00" waitingCount="1" stopTime="0.00" timeLoss="95.99" rerouteNo="0" devices="tripinfo_veh123" vType="CarA" speedFactor="1.02" vaporized=""/>
    <tripinfo id="veh50" depart="10.00" departLane="gneE71_0" departPos="5.10" departSpeed="0.00" departDelay="10.00" arrival="167.00" arrivalLane="gneE6_0" arrivalPos="192.80" arrivalSpeed="16.26" duration="157.00" routeLength="482.30" waitingTime="76.00" waitingCount="2" stopTime="0.00" timeLoss="125.16" rerouteNo="0" devices="tripinfo_veh50" vType="CarA" speedFactor="0.85" vaporized=""/>
    <tripinfo id="veh61" depart="25.00" departLane="gneE48_0" departPos="5.10" departSpeed="0.00" departDelay="25.00" arrival="172.00" arrivalLane="gneE43_0" arrivalPos="89.60" arrivalSpeed="13.04" duration="147.00" routeLength="682.38" waitingTime="66.00" waitingCount="1" stopTime="0.00" timeLoss="104.47" rerouteNo="0" devices="tripinfo_veh61" vType="CarA" speedFactor="1.12" vaporized=""/>
    <tripinfo id="veh22" depart="15.00" departLane="gneE0_0" departPos="5.10" departSpeed="0.00" departDelay="15.00" arrival="175.00" arrivalLane="gneE73_0" arrivalPos="92.80" arrivalSpeed="15.41" duration="160.00" routeLength="1054.42" waitingTime="59.00" waitingCount="1" stopTime="0.00" timeLoss="94.67" rerouteNo="0" devices="tripinfo_veh22" vType="CarA" speedFactor="0.98" vaporized=""/>
    <tripinfo id="veh63" depart="10.00" departLane="gneE51_0" departPos="5.10" departSpeed="0.00" departDelay="10.00" arrival="176.00" arrivalLane="gneE57_0" arrivalPos="92.80" arrivalSpeed="16.15" duration="166.00" routeLength="691.74" waitingTime="59.00" waitingCount="2" stopTime="0.00" timeLoss="120.87" rerouteNo="0" devices="tripinfo_veh63" vType="CarA" speedFactor="0.99" vaporized=""/>
    <tripinfo id="veh129" depart="25.00" departLane="gneE51_0" departPos="5.10" departSpeed="0.00" departDelay="25.00" arrival="178.00" arrivalLane="gneE57_0" arrivalPos="92.80" arrivalSpeed="16.07" duration="153.00" routeLength="691.74" waitingTime="43.00" waitingCount="2" stopTime="0.00" timeLoss="108.37" rerouteNo="0" devices="tripinfo_veh129" vType="CarA" speedFactor="1.01" vaporized=""/>
    <tripinfo id="veh1" depart="0.00" departLane="gneE16_0" departPos="5.10" departSpeed="0.00" departDelay="0.00" arrival="179.00" arrivalLane="gneE2_0" arrivalPos="405.29" arrivalSpeed="16.31" duration="179.00" routeLength="1658.34" waitingTime="39.00" waitingCount="1" stopTime="0.00" timeLoss="78.43" rerouteNo="0" devices="tripinfo_veh1" vType="CarA" speedFactor="0.94" vaporized=""/>
    <tripinfo id="veh13" depart="0.00" departLane="gneE40_0" departPos="5.10" departSpeed="0.00" departDelay="0.00" arrival="181.00" arrivalLane="gneE2_0" arrivalPos="405.29" arrivalSpeed="16.65" duration="181.00" routeLength="1537.34" waitingTime="33.00" waitingCount="1" stopTime="0.00" timeLoss="85.46" rerouteNo="0" devices="tripinfo_veh13" vType="CarA" speedFactor="1.12" vaporized=""/>
    <tripinfo id="veh15" depart="0.00" departLane="gneE46_0" departPos="5.10" departSpeed="0.00" departDelay="0.00" arrival="182.00" arrivalLane="gneE2_1" arrivalPos="405.29" arrivalSpeed="16.54" duration="182.00" routeLength="1744.96" waitingTime="20.00" waitingCount="1" stopTime="0.00" timeLoss="72.48" rerouteNo="0" devices="tripinfo_veh15" vType="CarA" speedFactor="0.93" vaporized=""/>
    <tripinfo id="veh95" depart="5.00" departLane="gneE44_0" departPos="5.10" departSpeed="0.00" departDelay="5.00" arrival="185.00" arrivalLane="gneE2_1" arrivalPos="405.29" arrivalSpeed="16.40" duration="180.00" routeLength="1743.51" waitingTime="15.00" waitingCount="2" stopTime="0.00" timeLoss="70.89" rerouteNo="0" devices="tripinfo_veh95" vType="CarA" speedFactor="1.06" vaporized=""/>
    <tripinfo id="veh16" depart="0.00" departLane="gneE44_0" departPos="5.10" departSpeed="0.00" departDelay="0.00" arrival="186.00" arrivalLane="gneE2_0" arrivalPos="405.29" arrivalSpeed="16.55" duration="186.00" routeLength="1743.51" waitingTime="11.00" waitingCount="2" stopTime="0.00" timeLoss="74.88" rerouteNo="0" devices="tripinfo_veh16" vType="CarA" speedFactor="0.88" vaporized=""/>
    <tripinfo id="veh103" depart="73.00" departLane="gneE0_0" departPos="5.10" departSpeed="0.00" departDelay="73.00" arrival="187.00" arrivalLane="gneE73_0" arrivalPos="92.80" arrivalSpeed="15.89" duration="114.00" routeLength="1054.42" waitingTime="11.00" waitingCount="1" stopTime="0.00" timeLoss="48.61" rerouteNo="0" devices="tripinfo_veh103" vType="CarA" speedFactor="0.95" vaporized=""/>
    <tripinfo id="veh14" depart="0.00" departLane="gneE42_0" departPos="5.10" departSpeed="0.00" departDelay="0.00" arrival="188.00" arrivalLane="gneE2_0" arrivalPos="405.29" arrivalSpeed="16.59" duration="188.00" routeLength="1546.41" waitingTime="44.00" waitingCount="1" stopTime="0.00" timeLoss="91.72" rerouteNo="0" devices="tripinfo_veh14" vType="CarA" speedFactor="0.99" vaporized=""/>
    <tripinfo id="veh43" depart="5.00" departLane="gneE67_0" departPos="5.10" departSpeed="0.00" departDelay="5.00" arrival="190.00" arrivalLane="gneE6_0" arrivalPos="192.80" arrivalSpeed="16.70" duration="185.00" routeLength="482.30" waitingTime="110.00" waitingCount="2" stopTime="0.00" timeLoss="153.36" rerouteNo="0" devices="tripinfo_veh43" vType="CarA" speedFactor="1.04" vaporized=""/>
    <tripinfo id="veh100" depart="58.00" departLane="gneE0_0" departPos="5.10" departSpeed="0.00" departDelay="58.00" arrival="191.00" arrivalLane="gneE2_0" arrivalPos="405.29" arrivalSpeed="16.44" duration="133.00" routeLength="1746.26" waitingTime="0.00" waitingCount="0" stopTime="0.00" timeLoss="27.06" rerouteNo="0" devices="tripinfo_veh100" vType="CarA" speedFactor="1.07" vaporized=""/>
    <tripinfo id="veh152" depart="55.00" departLane="gneE7_0" departPos="5.10" departSpeed="0.00" departDelay="55.00" arrival="191.00" arrivalLane="gneE43_0" arrivalPos="89.60" arrivalSpeed="12.43" duration="136.00" routeLength="496.09" waitingTime="55.00" waitingCount="2" stopTime="0.00" timeLoss="105.01" rerouteNo="0" devices="tripinfo_veh152" vType="CarA" speedFactor="1.07" vaporized=""/>
    <tripinfo id="veh23" depart="21.00" departLane="gneE0_0" departPos="5.10" departSpeed="0.00" departDelay="21.00" arrival="193.00" arrivalLane="gneE85_0" arrivalPos="96.80" arrivalSpeed="11.72" duration="172.00" routeLength="1147.19" waitingTime="55.00" waitingCount="1" stopTime="0.00" timeLoss="99.88" rerouteNo="0" devices="tripinfo_veh23" vType="CarA" speedFactor="0.89" vaporized=""/>
    <tripinfo id="veh153" depart="60.00" departLane="gneE7_0" departPos="5.10" departSpeed="0.00" departDelay="60.00" arrival="204.00" arrivalLane="gneE39_0" arrivalPos="89.60" arrivalSpeed="16.66" duration="144.00" routeLength="684.61" waitingTime="53.00" waitingCount="2" stopTime="0.00" timeLoss="100.05" rerouteNo="0" devices="tripinfo_veh153" vType="CarA" speedFactor="0.93" vaporized=""/>
    <tripinfo id="veh198" depart="100.00" departLane="gneE51_0" departPos="5.10" departSpeed="0.00" departDelay="0.00" arrival="207.00" arrivalLane="gneE2_0" arrivalPos="405.29" arrivalSpeed="16.67" duration="107.00" routeLength="1152.34" waitingTime="0.00" waitingCount="0" stopTime="0.00" timeLoss="35.33" rerouteNo="0" devices="tripinfo_veh198" vType="CarA" speedFactor="1.06" vaporized=""/>
    <tripinfo id="veh87" depart="10.00" departLane="gneE40_0" departPos="5.10" departSpeed="0.00" departDelay="10.00" arrival="208.00" arrivalLane="gneE6_0" arrivalPos="192.80" arrivalSpeed="16.19" duration="198.00" routeLength="687.02" waitingTime="109.00" waitingCount="2" stopTime="0.00" timeLoss="155.66" rerouteNo="0" devices="tripinfo_veh87" vType="CarA" speedFactor="1.04" vaporized=""/>
    <tripinfo id="veh56" depart="36.00" departLane="gneE16_0" departPos="5.10" departSpeed="0.00" departDelay="36.00" arrival="208.00" arrivalLane="gneE45_0" arrivalPos="89.60" arrivalSpeed="16.55" duration="172.00" routeLength="871.65" waitingTime="72.00" waitingCount="1" stopTime="0.00" timeLoss="117.74" rerouteNo="0" devices="tripinfo_veh56" vType="CarA" speedFactor="0.90" vaporized=""/>
    <tripinfo id="veh160" depart="36.00" departLane="gneE44_0" departPos="5.10" departSpeed="0.00" departDelay="36.00" arrival="209.00" arrivalLane="gneE6_0" arrivalPos="192.80" arrivalSpeed="15.21" duration="173.00" routeLength="893.19" waitingTime="52.00" waitingCount="2" stopTime="0.00" timeLoss="115.58" rerouteNo="0" devices="tripinfo_veh160" vType="CarA" speedFactor="0.88" vaporized=""/>
    <tripinfo id="veh162" depart="98.00" departLane="gneE0_0" departPos="5.10" departSpeed="0.00" departDelay="88.00" arrival="209.00" arrivalLane="gneE2_1" arrivalPos="405.29" arrivalSpeed="16.37" duration="111.00" routeLength="1594.89" waitingTime="0.00" waitingCount="0" stopTime="0.00" timeLoss="14.76" rerouteNo="0" devices="tripinfo_veh162" vType="CarA" speedFactor="0.99" vaporized=""/>
    <tripinfo id="veh98" depart="21.00" departLane="gneE44_0" departPos="5.10" departSpeed="0.00" departDelay="21.00" arrival="210.00" arrivalLane="gneE63_0" arrivalPos="92.80" arrivalSpeed="15.46" duration="189.00" routeLength="884.62" waitingTime="69.00" waitingCount="3" stopTime="0.00" timeLoss="133.28" rerouteNo="0" devices="tripinfo_veh98" vType="CarA" speedFactor="1.12" vaporized=""/>
    <tripinfo id="veh154" depart="30.00" departLane="gneE40_0" departPos="5.10" departSpeed="0.00" departDelay="30.00" arrival="211.00" arrivalLane="gneE6_1" arrivalPos="192.80" arrivalSpeed="16.17" duration="181.00" routeLength="687.02" waitingTime="69.00" waitingCount="4" stopTime="0.00" timeLoss="137.50" rerouteNo="0" devices="tripinfo_veh154" vType="CarA" speedFactor="1.06" vaporized=""/>
    <tripinfo id="veh101" depart="63.00" departLane="gneE0_0" departPos="5.10" departSpeed="0.00" departDelay="63.00" arrival="212.00" arrivalLane="gneE6_1" arrivalPos="192.80" arrivalSpeed="15.91" duration="149.00" routeLength="1266.35" waitingTime="21.00" waitingCount="1" stopTime="0.00" timeLoss="72.56" rerouteNo="0" devices="tripinfo_veh101" vType="CarA" speedFactor="0.96" vaporized=""/>
    <tripinfo id="veh90" depart="25.00" departLane="gneE40_0" departPos="5.10" departSpeed="0.00" departDelay="25.00" arrival="212.00" arrivalLane="gneE63_0" arrivalPos="92.80" arrivalSpeed="15.54" duration="187.00" routeLength="678.45" waitingTime="81.00" waitingCount="4" stopTime="0.00" timeLoss="144.08" rerouteNo="0" devices="tripinfo_veh90" vType="CarA" speedFactor="1.02" vaporized=""/>
    <tripinfo id="veh83" depart="25.00" departLane="gneE7_0" departPos="5.10" departSpeed="0.00" departDelay="25.00" arrival="212.00" arrivalLane="gneE73_0" arrivalPos="92.80" arrivalSpeed="16.46" duration="187.00" routeLength="983.03" waitingTime="67.00" waitingCount="2" stopTime="0.00" timeLoss="124.58" rerouteNo="0" devices="tripinfo_veh83" vType="CarA" speedFactor="0.97" vaporized=""/>
    <tripinfo id="veh165" depart="103.00" departLane="gneE0_0" departPos="5.10" departSpeed="0.00" departDelay="83.00" arrival="213.00" arrivalLane="gneE2_1" arrivalPos="405.29" arrivalSpeed="16.42" duration="110.00" routeLength="1594.89" waitingTime="0.00" waitingCount="0" stopTime="0.00" timeLoss="14.10" rerouteNo="0" devices="tripinfo_veh165" vType="CarA" speedFactor="0.91" vaporized=""/>
    <tripinfo id="veh197" depart="100.00" departLane="gneE48_0" departPos="5.10" departSpeed="0.00" departDelay="0.00" arrival="213.00" arrivalLane="gneE2_0" arrivalPos="405.29" arrivalSpeed="16.31" duration="113.00" routeLength="1056.37" waitingTime="5.00" waitingCount="1" stopTime="0.00" timeLoss="48.20" rerouteNo="0" devices="tripinfo_veh197" vType="CarA" speedFactor="0.87" vaporized=""/>
    <tripinfo id="veh149" depart="40.00" departLane="gneE7_0" departPos="5.10" departSpeed="0.00" departDelay="40.00" arrival="213.00" arrivalLane="gneE73_0" arrivalPos="92.80" arrivalSpeed="16.33" duration="173.00" routeLength="983.03" waitingTime="56.00" waitingCount="2" stopTime="0.00" timeLoss="110.98" rerouteNo="0" devices="tripinfo_veh149" vType="CarA" speedFactor="1.04" vaporized=""/>
    <tripinfo id="veh92" depart="10.00" departLane="gneE42_0" departPos="5.10" departSpeed="0.00" departDelay="10.00" arrival="214.00" arrivalLane="gneE63_0" arrivalPos="92.80" arrivalSpeed="16.40" duration="204.00" routeLength="687.52" waitingTime="96.00" waitingCount="4" stopTime="0.00" timeLoss="160.34" rerouteNo="0" devices="tripinfo_veh92" vType="CarA" speedFactor="0.83" vaporized=""/>
    <tripinfo id="veh55" depart="31.00" departLane="gneE16_0" departPos="5.10" departSpeed="0.00" departDelay="31.00" arrival="216.00" arrivalLane="gneE41_0" arrivalPos="89.60" arrivalSpeed="12.23" duration="185.00" routeLength="683.13" waitingTime="98.00" waitingCount="2" stopTime="0.00" timeLoss="142.63" rerouteNo="0" devices="tripinfo_veh55" vType="CarA" speedFactor="1.00" vaporized=""/>
    <tripinfo id="veh168" depart="108.00" departLane="gneE0_0" departPos="5.10" departSpeed="0.00" departDelay="78.00" arrival="218.00" arrivalLane="gneE2_0" arrivalPos="405.29" arrivalSpeed="16.52" duration="110.00" routeLength="1594.89" waitingTime="0.00" waitingCount="0" stopTime="0.00" timeLoss="14.38" rerouteNo="0" devices="tripinfo_veh168" vType="CarA" speedFactor="0.98" vaporized=""/>
    <tripinfo id="veh24" depart="26.00" departLane="gneE0_0" departPos="5.10" departSpeed="0.00" departDelay="26.00" arrival="220.00" arrivalLane="gneE63_0" arrivalPos="92.80" arrivalSpeed="15.92" duration="194.00" routeLength="1257.78" waitingTime="59.00" waitingCount="2" stopTime="0.00" timeLoss="116.22" rerouteNo="0" devices="tripinfo_veh24" vType="CarA" speedFactor="0.83" vaporized=""/>
    <tripinfo id="veh62" depart="5.00" departLane="gneE51_0" departPos="5.10" departSpeed="0.00" departDelay="5.00" arrival="222.00" arrivalLane="gneE21_0" arrivalPos="189.60" arrivalSpeed="16.54" duration="217.00" routeLength="690.28" waitingTime="94.00" waitingCount="3" stopTime="0.00" timeLoss="172.66" rerouteNo="0" devices="tripinfo_veh62" vType="CarA" speedFactor="1.02" vaporized=""/>
    <tripinfo id="veh171" depart="113.00" departLane="gneE0_0" departPos="5.10" departSpeed="0.00" departDelay="73.00" arrival="224.00" arrivalLane="gneE2_0" arrivalPos="405.29" arrivalSpeed="16.56" duration="111.00" routeLength="1594.89" waitingTime="0.00" waitingCount="0" stopTime="0.00" timeLoss="14.80" rerouteNo="0" devices="tripinfo_veh171" vType="CarA" speedFactor="0.90" vaporized=""/>
    <tripinfo id="veh174" depart="118.00" departLane="gneE0_0" departPos="5.10" departSpeed="0.00" departDelay="68.00" arrival="228.00" arrivalLane="gneE2_0" arrivalPos="405.29" arrivalSpeed="16.49" duration="110.00" routeLength="1594.89" waitingTime="0.00" waitingCount="0" stopTime="0.00" timeLoss="14.14" rerouteNo="0" devices="tripinfo_veh174" vType="CarA" speedFactor="0.96" vaporized=""/>
    <tripinfo id="veh126" depart="46.00" departLane="gneE48_0" departPos="5.10" departSpeed="0.00" departDelay="46.00" arrival="228.00" arrivalLane="gneE43_0" arrivalPos="89.60" arrivalSpeed="12.79" duration="182.00" routeLength="682.38" waitingTime="88.00" waitingCount="2" stopTime="0.00" timeLoss="138.73" rerouteNo="0" devices="tripinfo_veh126" vType="CarA" speedFactor="1.03" vaporized=""/>
    <tripinfo id="veh150" depart="45.00" departLane="gneE7_0" departPos="5.10" departSpeed="0.00" departDelay="45.00" arrival="231.00" arrivalLane="gneE85_0" arrivalPos="96.80" arrivalSpeed="11.94" duration="186.00" routeLength="1075.80" waitingTime="50.00" waitingCount="2" stopTime="0.00" timeLoss="117.50" rerouteNo="0" devices="tripinfo_veh150" vType="CarA" speedFactor="0.96" vaporized=""/>
    <tripinfo id="veh135" depart="30.00" departLane="gneE58_0" departPos="5.10" departSpeed="0.00" departDelay="30.00" arrival="232.00" arrivalLane="gneE66_0" arrivalPos="96.80" arrivalSpeed="12.51" duration="202.00" routeLength="1270.43" waitingTime="37.00" waitingCount="3" stopTime="0.00" timeLoss="121.42" rerouteNo="0" devices="tripinfo_veh135" vType="CarA" speedFactor="1.01" vaporized=""/>
    <tripinfo id="veh177" depart="123.00" departLane="gneE0_0" departPos="5.10" departSpeed="0.00" departDelay="63.00" arrival="234.00" arrivalLane="gneE2_0" arrivalPos="405.29" arrivalSpeed="16.65" duration="111.00" routeLength="1594.89" waitingTime="0.00" waitingCount="0" stopTime="0.00" timeLoss="15.07" rerouteNo="0" devices="tripinfo_veh177" vType="CarA" speedFactor="1.03" vaporized=""/>
    <tripinfo id="veh65" depart="20.00" departLane="gneE51_0" departPos="5.10" departSpeed="0.00" departDelay="20.00" arrival="237.00" arrivalLane="gneE43_0" arrivalPos="89.60" arrivalSpeed="14.16" duration="217.00" routeLength="778.35" waitingTime="79.00" waitingCount="3" stopTime="0.00" timeLoss="165.92" rerouteNo="0" devices="tripinfo_veh65" vType="CarA" speedFactor="0.88" vaporized=""/>
    <tripinfo id="veh180" depart="128.00" departLane="gneE0_0" departPos="5.10" departSpeed="0.00" departDelay="58.00" arrival="238.00" arrivalLane="gneE2_0" arrivalPos="405.29" arrivalSpeed="16.40" duration="110.00" routeLength="1594.89" waitingTime="0.00" waitingCount="0" stopTime="0.00" timeLoss="14.39" rerouteNo="0" devices="tripinfo_veh180" vType="CarA" speedFactor="1.10" vaporized=""/>
    <tripinfo id="veh25" depart="31.00" departLane="gneE0_0" departPos="5.10" departSpeed="0.00" departDelay="31.00" arrival="240.00" arrivalLane="gneE66_0" arrivalPos="96.80" arrivalSpeed="12.19" duration="209.00" routeLength="1353.75" waitingTime="56.00" waitingCount="2" stopTime="0.00" timeLoss="124.08" rerouteNo="0" devices="tripinfo_veh25" vType="CarA" speedFactor="0.87" vaporized=""/>
    <tripinfo id="veh66" depart="5.00" departLane="gneE58_0" departPos="5.10" departSpeed="0.00" departDelay="5.00" arrival="241.00" arrivalLane="gneE47_0" arrivalPos="92.80" arrivalSpeed="15.66" duration="236.00" routeLength="574.56" waitingTime="157.00" waitingCount="2" stopTime="0.00" timeLoss="199.69" rerouteNo="0" devices="tripinfo_veh66" vType="CarA" speedFactor="0.91" vaporized=""/>
    <tripinfo id="veh30" depart="6.00" departLane="gneE84_0" departPos="5.10" departSpeed="0.00" departDelay="6.00" arrival="243.00" arrivalLane="gneE2_1" arrivalPos="405.29" arrivalSpeed="16.55" duration="237.00" routeLength="1459.37" waitingTime="99.00" waitingCount="1" stopTime="0.00" timeLoss="147.52" rerouteNo="0" devices="tripinfo_veh30" vType="CarA" speedFactor="1.18" vaporized=""/>
    <tripinfo id="veh183" depart="133.00" departLane="gneE0_0" departPos="5.10" departSpeed="0.00" departDelay="53.00" arrival="243.00" arrivalLane="gneE2_2" arrivalPos="405.29" arrivalSpeed="16.61" duration="110.00" routeLength="1594.89" waitingTime="0.00" waitingCount="0" stopTime="0.00" timeLoss="13.51" rerouteNo="0" devices="tripinfo_veh183" vType="CarA" speedFactor="1.08" vaporized=""/>
    <tripinfo id="veh127" depart="51.00" departLane="gneE48_0" departPos="5.10" departSpeed="0.00" departDelay="51.00" arrival="243.00" arrivalLane="gneE39_0" arrivalPos="89.60" arrivalSpeed="16.50" duration="192.00" routeLength="870.90" waitingTime="82.00" waitingCount="2" stopTime="0.00" timeLoss="136.56" rerouteNo="0" devices="tripinfo_veh127" vType="CarA" speedFactor="0.82" vaporized=""/>
    <tripinfo id="veh3" depart="0.00" departLane="gneE84_0" departPos="5.10" departSpeed="0.00" departDelay="0.00" arrival="244.00" arrivalLane="gneE2_0" arrivalPos="405.29" arrivalSpeed="16.30" duration="244.00" routeLength="1459.37" waitingTime="101.00" waitingCount="1" stopTime="0.00" timeLoss="153.42" rerouteNo="0" devices="tripinfo_veh3" vType="CarA" speedFactor="1.08" vaporized=""/>
    <tripinfo id="veh134" depart="25.00" departLane="gneE58_0" departPos="5.10" departSpeed="0.00" departDelay="25.00" arrival="244.00" arrivalLane="gneE47_0" arrivalPos="92.80" arrivalSpeed="16.15" duration="219.00" routeLength="574.56" waitingTime="136.00" waitingCount="2" stopTime="0.00" timeLoss="182.70" rerouteNo="0" devices="tripinfo_veh134" vType="CarA" speedFactor="1.23" vaporized=""/>
    <tripinfo id="veh161" depart="41.00" departLane="gneE44_0" departPos="5.10" departSpeed="0.00" departDelay="41.00" arrival="246.00" arrivalLane="gneE21_0" arrivalPos="189.60" arrivalSpeed="15.60" duration="205.00" routeLength="483.13" waitingTime="133.00" waitingCount="1" stopTime="0.00" timeLoss="174.65" rerouteNo="0" devices="tripinfo_veh161" vType="CarA" speedFactor="1.08" vaporized=""/>