<?xml version="1.0" encoding="UTF-8"?>

<!-- generated on Tue Oct  9 14:43:29 2018 by Eclipse SUMO GUI Version 1.0.0
<configuration xmlns:xsi="http://www.w3.org/2001/XMLSchema-instance" xsi:noNamespaceSchemaLocation="http://sumo.dlr.de/xsd/sumoConfiguration.xsd">

    <input>
        <net-file value="data/cross.net.xml"/>
        <route-files value="data/cross.rou.xml"/>
        <additional-files value="data/cross.det.xml"/>
    </input>

    <output>
        <tripinfo-output value="tripinfo.xml"/>
    </output>

    <time>
        <begin value="0"/>
    </time>

    <report>
        <verbose value="true"/>
        <no-step-log value="true"/>
    </report>

    <traci_server>
        <remote-port value="60631"/>
    </traci_server>

    <gui_only>
        <gui-settings-file value="data/cross.settings.xml"/>
    </gui_only>

</configuration>
-->

<tripinfos xmlns:xsi="http://www.w3.org/2001/XMLSchema-instance" xsi:noNamespaceSchemaLocation="http://sumo.dlr.de/xsd/tripinfo_file.xsd">
    <tripinfo id="car_1" depart="9.00" departLane="s22B_0" departPos="5.10" departSpeed="0.00" departDelay="0.00" arrival="50.00" arrivalLane="B2n2_1" arrivalPos="189.60" arrivalSpeed="12.69" duration="41.00" routeLength="394.90" waitingTime="0.00" waitingCount="0" stopTime="0.00" timeLoss="10.60" rerouteNo="0" devices="tripinfo_car_1" vType="typeCar" speedFactor="0.94" vaporized=""/>
    <tripinfo id="car_2" depart="10.00" departLane="n22B_0" departPos="5.10" departSpeed="0.00" departDelay="0.00" arrival="51.00" arrivalLane="B2s2_0" arrivalPos="189.60" arrivalSpeed="13.96" duration="41.00" routeLength="394.90" waitingTime="0.00" waitingCount="0" stopTime="0.00" timeLoss="12.26" rerouteNo="0" devices="tripinfo_car_2" vType="typeCar" speedFactor="1.01" vaporized=""/>
    <tripinfo id="car_4" depart="15.00" departLane="n22B_0" departPos="5.10" departSpeed="0.00" departDelay="1.00" arrival="54.00" arrivalLane="B2s2_0" arrivalPos="189.60" arrivalSpeed="13.94" duration="39.00" routeLength="394.90" waitingTime="0.00" waitingCount="0" stopTime="0.00" timeLoss="11.23" rerouteNo="0" devices="tripinfo_car_4" vType="typeCar" speedFactor="1.03" vaporized=""/>
    <tripinfo id="car_6" depart="15.00" departLane="n12A_0" departPos="5.10" departSpeed="0.00" departDelay="0.00" arrival="56.00" arrivalLane="A2s1_1" arrivalPos="189.60" arrivalSpeed="14.17" duration="41.00" routeLength="394.90" waitingTime="0.00" waitingCount="0" stopTime="0.00" timeLoss="13.30" rerouteNo="0" devices="tripinfo_car_6" vType="typeCar" speedFactor="1.05" vaporized=""/>
    <tripinfo id="car_0" depart="2.00" departLane="s22B_0" departPos="5.10" departSpeed="0.00" departDelay="0.00" arrival="56.00" arrivalLane="B2n2_0" arrivalPos="189.60" arrivalSpeed="14.71" duration="54.00" routeLength="394.90" waitingTime="0.00" waitingCount="0" stopTime="0.00" timeLoss="26.21" rerouteNo="0" devices="tripinfo_car_0" vType="typeCar" speedFactor="1.06" vaporized=""/>
    <tripinfo id="car_10" depart="24.00" departLane="s22B_0" departPos="5.10" departSpeed="0.00" departDelay="0.00" arrival="62.00" arrivalLane="B2n2_0" arrivalPos="189.60" arrivalSpeed="15.14" duration="38.00" routeLength="394.90" waitingTime="0.00" waitingCount="0" stopTime="0.00" timeLoss="11.60" rerouteNo="0" devices="tripinfo_car_10" vType="typeCar" speedFactor="1.09" vaporized=""/>
    <tripinfo id="car_9" depart="20.00" departLane="n12A_0" departPos="5.10" departSpeed="0.00" departDelay="0.00" arrival="63.00" arrivalLane="A2s1_1" arrivalPos="189.60" arrivalSpeed="11.53" duration="43.00" routeLength="394.90" waitingTime="0.00" waitingCount="0" stopTime="0.00" timeLoss="9.27" rerouteNo="0" devices="tripinfo_car_9" vType="typeCar" speedFactor="0.86" vaporized=""/>
    <tripinfo id="car_5" depart="20.00" departLane="n22B_0" departPos="5.10" departSpeed="0.00" departDelay="5.00" arrival="64.00" arrivalLane="B2s2_0" arrivalPos="189.60" arrivalSpeed="11.16" duration="44.00" routeLength="394.90" waitingTime="0.00" waitingCount="0" stopTime="0.00" timeLoss="9.78" rerouteNo="0" devices="tripinfo_car_5" vType="typeCar" speedFactor="0.83" vaporized=""/>
    <tripinfo id="car_3" depart="10.00" departLane="n12A_0" departPos="5.10" departSpeed="0.00" departDelay="0.00" arrival="66.00" arrivalLane="A2s1_0" arrivalPos="189.60" arrivalSpeed="14.94" duration="56.00" routeLength="394.90" waitingTime="4.00" waitingCount="1" stopTime="0.00" timeLoss="29.43" rerouteNo="0" devices="tripinfo_car_3" vType="typeCar" speedFactor="1.08" vaporized=""/>
    <tripinfo id="car_14" depart="42.00" departLane="s22B_0" departPos="5.10" departSpeed="0.00" departDelay="0.00" arrival="94.00" arrivalLane="B2n2_0" arrivalPos="189.60" arrivalSpeed="13.71" duration="52.00" routeLength="394.90" waitingTime="0.00" waitingCount="0" stopTime="0.00" timeLoss="23.32" rerouteNo="0" devices="tripinfo_car_14" vType="typeCar" speedFactor="0.99" vaporized=""/>
    <tripinfo id="car_8" depart="30.00" departLane="n22B_0" departPos="5.10" departSpeed="0.00" departDelay="10.00" arrival="96.00" arrivalLane="B2s2_1" arrivalPos="189.60" arrivalSpeed="12.97" duration="66.00" routeLength="394.90" waitingTime="12.00" waitingCount="1" stopTime="0.00" timeLoss="35.48" rerouteNo="0" devices="tripinfo_car_8" vType="typeCar" speedFactor="0.94" vaporized=""/>
    <tripinfo id="car_7" depart="25.00" departLane="n22B_0" departPos="5.10" departSpeed="0.00" departDelay="9.00" arrival="96.00" arrivalLane="B2s2_0" arrivalPos="189.60" arrivalSpeed="12.10" duration="71.00" routeLength="394.90" waitingTime="19.00" waitingCount="1" stopTime="0.00" timeLoss="38.51" rerouteNo="0" devices="tripinfo_car_7" vType="typeCar" speedFactor="0.89" vaporized=""/>
    <tripinfo id="car_13" depart="36.00" departLane="s22B_0" departPos="5.10" departSpeed="0.00" departDelay="0.00" arrival="97.00" arrivalLane="B2n2_0" arrivalPos="189.60" arrivalSpeed="15.57" duration="61.00" routeLength="394.90" waitingTime="5.00" waitingCount="1" stopTime="0.00" timeLoss="35.09" rerouteNo="0" devices="tripinfo_car_13" vType="typeCar" speedFactor="1.12" vaporized=""/>
    <tripinfo id="car_15" depart="47.00" departLane="s22B_0" departPos="5.10" departSpeed="0.00" departDelay="4.00" arrival="97.00" arrivalLane="B2n2_1" arrivalPos="189.60" arrivalSpeed="12.60" duration="50.00" routeLength="394.90" waitingTime="0.00" waitingCount="0" stopTime="0.00" timeLoss="18.99" rerouteNo="0" devices="tripinfo_car_15" vType="typeCar" speedFactor="0.93" vaporized=""/>
    <tripinfo id="car_12" depart="41.00" departLane="n22B_0" departPos="5.10" departSpeed="0.00" departDelay="9.00" arrival="98.00" arrivalLane="B2s2_1" arrivalPos="189.60" arrivalSpeed="14.25" duration="57.00" routeLength="394.90" waitingTime="1.00" waitingCount="1" stopTime="0.00" timeLoss="29.61" rerouteNo="0" devices="tripinfo_car_12" vType="typeCar" speedFactor="1.05" vaporized=""/>
    <tripinfo id="car_11" depart="35.00" departLane="n22B_0" departPos="5.10" departSpeed="0.00" departDelay="5.00" arrival="98.00" arrivalLane="B2s2_0" arrivalPos="189.60" arrivalSpeed="13.62" duration="63.00" routeLength="394.90" waitingTime="7.00" waitingCount="1" stopTime="0.00" timeLoss="34.55" rerouteNo="0" devices="tripinfo_car_11" vType="typeCar" speedFactor="1.03" vaporized=""/>
    <tripinfo id="car_16" depart="53.00" departLane="n22B_0" departPos="5.10" departSpeed="0.00" departDelay="0.00" arrival="100.00" arrivalLane="B2s2_0" arrivalPos="189.60" arrivalSpeed="12.09" duration="47.00" routeLength="394.90" waitingTime="0.00" waitingCount="0" stopTime="0.00" timeLoss="14.07" rerouteNo="0" devices="tripinfo_car_16" vType="typeCar" speedFactor="0.88" vaporized=""/>
    <tripinfo id="car_17" depart="61.00" departLane="s22B_0" departPos="5.10" departSpeed="0.00" departDelay="0.00" arrival="103.00" arrivalLane="B2n2_0" arrivalPos="189.60" arrivalSpeed="12.95" duration="42.00" routeLength="394.90" waitingTime="0.00" waitingCount="0" stopTime="0.00" timeLoss="11.31" rerouteNo="0" devices="tripinfo_car_17" vType="typeCar" speedFactor="0.94" vaporized=""/>
    <tripinfo id="car_18" depart="72.00" departLane="s22B_0" departPos="5.10" departSpeed="0.00" departDelay="0.00" arrival="113.00" arrivalLane="B2n2_0" arrivalPos="189.60" arrivalSpeed="12.70" duration="41.00" routeLength="394.90" waitingTime="0.00" waitingCount="0" stopTime="0.00" timeLoss="10.35" rerouteNo="0" devices="tripinfo_car_18" vType="typeCar" speedFactor="0.94" vaporized=""/>
    <tripinfo id="car_24" depart="96.00" departLane="n22B_0" departPos="5.10" departSpeed="0.00" departDelay="0.00" arrival="140.00" arrivalLane="B2s2_1" arrivalPos="189.60" arrivalSpeed="11.39" duration="44.00" routeLength="394.90" waitingTime="0.00" waitingCount="0" stopTime="0.00" timeLoss="8.79" rerouteNo="0" devices="tripinfo_car_24" vType="typeCar" speedFactor="0.83" vaporized=""/>
    <tripinfo id="car_21" depart="85.00" departLane="s22B_0" departPos="5.10" departSpeed="0.00" departDelay="0.00" arrival="145.00" arrivalLane="B2n2_1" arrivalPos="189.60" arrivalSpeed="13.70" duration="60.00" routeLength="394.90" waitingTime="8.00" waitingCount="1" stopTime="0.00" timeLoss="31.27" rerouteNo="0" devices="tripinfo_car_21" vType="typeCar" speedFactor="1.01" vaporized=""/>
    <tripinfo id="car_19" depart="80.00" departLane="s22B_0" departPos="5.10" departSpeed="0.00" departDelay="0.00" arrival="145.00" arrivalLane="B2n2_0" arrivalPos="189.60" arrivalSpeed="15.67" duration="65.00" routeLength="394.90" waitingTime="13.00" waitingCount="1" stopTime="0.00" timeLoss="40.00" rerouteNo="0" devices="tripinfo_car_19" vType="typeCar" speedFactor="1.16" vaporized=""/>
    <tripinfo id="car_25" depart="101.00" departLane="n22B_0" departPos="5.10" departSpeed="0.00" departDelay="3.00" arrival="145.00" arrivalLane="B2s2_1" arrivalPos="189.60" arrivalSpeed="11.75" duration="44.00" routeLength="394.90" waitingTime="0.00" waitingCount="0" stopTime="0.00" timeLoss="10.64" rerouteNo="0" devices="tripinfo_car_25" vType="typeCar" speedFactor="0.87" vaporized=""/>
    <tripinfo id="car_20" depart="84.00" departLane="n22B_0" departPos="5.10" departSpeed="0.00" departDelay="0.00" arrival="146.00" arrivalLane="B2s2_0" arrivalPos="189.60" arrivalSpeed="13.88" duration="62.00" routeLength="394.90" waitingTime="9.00" waitingCount="1" stopTime="0.00" timeLoss="33.79" rerouteNo="0" devices="tripinfo_car_20" vType="typeCar" speedFactor="1.02" vaporized=""/>
    <tripinfo id="car_23" depart="94.00" departLane="s22B_0" departPos="5.10" departSpeed="0.00" departDelay="0.00" arrival="148.00" arrivalLane="B2n2_0" arrivalPos="189.60" arrivalSpeed="12.08" duration="54.00" routeLength="394.90" waitingTime="0.00" waitingCount="0" stopTime="0.00" timeLoss="21.93" rerouteNo="0" devices="tripinfo_car_23" vType="typeCar" speedFactor="0.89" vaporized=""/>
    <tripinfo id="car_26" depart="106.00" departLane="n22B_0" departPos="5.10" departSpeed="0.00" departDelay="7.00" arrival="150.00" arrivalLane="B2s2_0" arrivalPos="189.60" arrivalSpeed="12.63" duration="44.00" routeLength="394.90" waitingTime="0.00" waitingCount="0" stopTime="0.00" timeLoss="12.02" rerouteNo="0" devices="tripinfo_car_26" vType="typeCar" speedFactor="0.92" vaporized=""/>
    <tripinfo id="car_22" depart="85.00" departLane="e2B_0" departPos="5.10" departSpeed="0.00" departDelay="0.00" arrival="156.00" arrivalLane="A2w_0" arrivalPos="189.60" arrivalSpeed="13.29" duration="71.00" routeLength="594.90" waitingTime="2.00" waitingCount="1" stopTime="0.00" timeLoss="26.52" rerouteNo="0" devices="tripinfo_car_22" vType="typeCar" speedFactor="0.98" vaporized=""/>
    <tripinfo id="car_43" depart="129.00" departLane="n12A_0" departPos="5.10" departSpeed="0.00" departDelay="0.00" arrival="169.00" arrivalLane="A2s1_0" arrivalPos="189.60" arrivalSpeed="14.15" duration="40.00" routeLength="394.90" waitingTime="0.00" waitingCount="0" stopTime="0.00" timeLoss="11.79" rerouteNo="0" devices="tripinfo_car_43" vType="typeCar" speedFactor="1.04" vaporized=""/>
    <tripinfo id="car_32" depart="119.00" departLane="e2B_0" departPos="5.10" departSpeed="0.00" departDelay="0.00" arrival="178.00" arrivalLane="A2w_0" arrivalPos="189.60" arrivalSpeed="13.85" duration="59.00" routeLength="594.90" waitingTime="0.00" waitingCount="0" stopTime="0.00" timeLoss="16.27" rerouteNo="0" devices="tripinfo_car_32" vType="typeCar" speedFactor="1.01" vaporized=""/>
    <tripinfo id="car_40" depart="126.00" departLane="e2B_0" departPos="5.10" departSpeed="0.00" departDelay="0.00" arrival="180.00" arrivalLane="A2w_0" arrivalPos="189.60" arrivalSpeed="14.20" duration="54.00" routeLength="594.90" waitingTime="0.00" waitingCount="0" stopTime="0.00" timeLoss="11.86" rerouteNo="0" devices="tripinfo_car_40" vType="typeCar" speedFactor="1.03" vaporized=""/>
    <tripinfo id="car_31" depart="121.00" departLane="w2A_0" departPos="5.10" departSpeed="0.00" departDelay="2.00" arrival="198.00" arrivalLane="B2e_0" arrivalPos="189.60" arrivalSpeed="15.84" duration="77.00" routeLength="594.90" waitingTime="12.00" waitingCount="1" stopTime="0.00" timeLoss="39.60" rerouteNo="0" devices="tripinfo_car_31" vType="typeCar" speedFactor="1.15" vaporized=""/>
    <tripinfo id="car_48" depart="139.00" departLane="e2B_0" departPos="5.10" departSpeed="0.00" departDelay="0.00" arrival="198.00" arrivalLane="A2w_0" arrivalPos="189.60" arrivalSpeed="12.05" duration="59.00" routeLength="594.90" waitingTime="0.00" waitingCount="0" stopTime="0.00" timeLoss="9.97" rerouteNo="0" devices="tripinfo_car_48" vType="typeCar" speedFactor="0.88" vaporized=""/>
    <tripinfo id="car_52" depart="144.00" departLane="e2B_0" departPos="5.10" departSpeed="0.00" departDelay="0.00" arrival="200.00" arrivalLane="A2w_0" arrivalPos="189.60" arrivalSpeed="12.80" duration="56.00" routeLength="594.90" waitingTime="0.00" waitingCount="0" stopTime="0.00" timeLoss="13.36" rerouteNo="0" devices="tripinfo_car_52" vType="typeCar" speedFactor="1.02" vaporized=""/>
    <tripinfo id="car_29" depart="116.00" departLane="w2A_0" departPos="5.10" departSpeed="0.00" departDelay="0.00" arrival="202.00" arrivalLane="B2e_0" arrivalPos="189.60" arrivalSpeed="12.69" duration="86.00" routeLength="594.90" waitingTime="17.00" waitingCount="1" stopTime="0.00" timeLoss="39.48" rerouteNo="0" devices="tripinfo_car_29" vType="typeCar" speedFactor="0.93" vaporized=""/>
    <tripinfo id="car_36" depart="127.00" departLane="w2A_0" departPos="5.10" departSpeed="0.00" departDelay="5.00" arrival="204.00" arrivalLane="B2e_0" arrivalPos="189.60" arrivalSpeed="13.15" duration="77.00" routeLength="594.90" waitingTime="8.00" waitingCount="1" stopTime="0.00" timeLoss="32.07" rerouteNo="0" devices="tripinfo_car_36" vType="typeCar" speedFactor="0.97" vaporized=""/>
    <tripinfo id="car_62" depart="172.00" departLane="n12A_0" departPos="5.10" departSpeed="0.00" departDelay="0.00" arrival="212.00" arrivalLane="A2s1_1" arrivalPos="189.60" arrivalSpeed="13.81" duration="40.00" routeLength="394.90" waitingTime="0.00" waitingCount="0" stopTime="0.00" timeLoss="11.70" rerouteNo="0" devices="tripinfo_car_62" vType="typeCar" speedFactor="1.02" vaporized=""/>
    <tripinfo id="car_46" depart="136.00" departLane="s12A_0" departPos="5.10" departSpeed="0.00" departDelay="0.00" arrival="216.00" arrivalLane="A2n1_0" arrivalPos="189.60" arrivalSpeed="13.56" duration="80.00" routeLength="394.90" waitingTime="28.00" waitingCount="1" stopTime="0.00" timeLoss="51.20" rerouteNo="0" devices="tripinfo_car_46" vType="typeCar" speedFactor="1.00" vaporized=""/>
    <tripinfo id="car_56" depart="151.00" departLane="n12A_0" departPos="5.10" departSpeed="0.00" departDelay="0.00" arrival="216.00" arrivalLane="A2s1_0" arrivalPos="189.60" arrivalSpeed="12.17" duration="65.00" routeLength="394.90" waitingTime="12.00" waitingCount="1" stopTime="0.00" timeLoss="33.12" rerouteNo="0" devices="tripinfo_car_56" vType="typeCar" speedFactor="0.90" vaporized=""/>
    <tripinfo id="car_68" depart="179.00" departLane="s12A_0" departPos="5.10" departSpeed="0.00" departDelay="0.00" arrival="218.00" arrivalLane="A2n1_0" arrivalPos="189.60" arrivalSpeed="14.20" duration="39.00" routeLength="394.90" waitingTime="0.00" waitingCount="0" stopTime="0.00" timeLoss="11.49" rerouteNo="0" devices="tripinfo_car_68" vType="typeCar" speedFactor="1.04" vaporized=""/>
    <tripinfo id="car_71" depart="183.00" departLane="n12A_0" departPos="5.10" departSpeed="0.00" departDelay="0.00" arrival="223.00" arrivalLane="A2s1_0" arrivalPos="189.60" arrivalSpeed="13.20" duration="40.00" routeLength="394.90" waitingTime="0.00" waitingCount="0" stopTime="0.00" timeLoss="10.57" rerouteNo="0" devices="tripinfo_car_71" vType="typeCar" speedFactor="0.97" vaporized=""/>
    <tripinfo id="car_28" depart="116.00" departLane="s22B_0" departPos="5.10" departSpeed="0.00" departDelay="0.00" arrival="234.00" arrivalLane="B2n2_0" arrivalPos="189.60" arrivalSpeed="15.61" duration="118.00" routeLength="394.90" waitingTime="67.00" waitingCount="1" stopTime="0.00" timeLoss="92.53" rerouteNo="0" devices="tripinfo_car_28" vType="typeCar" speedFactor="1.13" vaporized=""/>
    <tripinfo id="car_30" depart="121.00" departLane="s22B_0" departPos="5.10" departSpeed="0.00" departDelay="2.00" arrival="235.00" arrivalLane="B2n2_1" arrivalPos="189.60" arrivalSpeed="15.92" duration="114.00" routeLength="394.90" waitingTime="61.00" waitingCount="1" stopTime="0.00" timeLoss="89.75" rerouteNo="0" devices="tripinfo_car_30" vType="typeCar" speedFactor="1.18" vaporized=""/>
    <tripinfo id="car_33" depart="121.00" departLane="n22B_0" departPos="5.10" departSpeed="0.00" departDelay="0.00" arrival="236.00" arrivalLane="B2s2_1" arrivalPos="189.60" arrivalSpeed="16.02" duration="115.00" routeLength="394.90" waitingTime="61.00" waitingCount="1" stopTime="0.00" timeLoss="90.33" rerouteNo="0" devices="tripinfo_car_33" vType="typeCar" speedFactor="1.17" vaporized=""/>
    <tripinfo id="car_27" depart="115.00" departLane="n22B_0" departPos="5.10" departSpeed="0.00" departDelay="0.00" arrival="236.00" arrivalLane="B2s2_0" arrivalPos="189.60" arrivalSpeed="12.98" duration="121.00" routeLength="394.90" waitingTime="68.00" waitingCount="1" stopTime="0.00" timeLoss="90.83" rerouteNo="0" devices="tripinfo_car_27" vType="typeCar" speedFactor="0.95" vaporized=""/>
    <tripinfo id="car_35" depart="126.00" departLane="s22B_0" departPos="5.10" departSpeed="0.00" departDelay="4.00" arrival="237.00" arrivalLane="B2n2_0" arrivalPos="189.60" arrivalSpeed="13.96" duration="111.00" routeLength="394.90" waitingTime="58.00" waitingCount="1" stopTime="0.00" timeLoss="83.02" rerouteNo="0" devices="tripinfo_car_35" vType="typeCar" speedFactor="1.02" vaporized=""/>
    <tripinfo id="car_37" depart="132.00" departLane="n22B_0" departPos="5.10" departSpeed="0.00" departDelay="9.00" arrival="238.00" arrivalLane="B2s2_1" arrivalPos="189.60" arrivalSpeed="16.30" duration="106.00" routeLength="394.90" waitingTime="51.00" waitingCount="1" stopTime="0.00" timeLoss="81.12" rerouteNo="0" devices="tripinfo_car_37" vType="typeCar" speedFactor="1.18" vaporized=""/>
    <tripinfo id="car_34" depart="126.00" departLane="n22B_0" departPos="5.10" departSpeed="0.00" departDelay="4.00" arrival="238.00" arrivalLane="B2s2_0" arrivalPos="189.60" arrivalSpeed="13.45" duration="112.00" routeLength="394.90" waitingTime="57.00" waitingCount="1" stopTime="0.00" timeLoss="83.24" rerouteNo="0" devices="tripinfo_car_34" vType="typeCar" speedFactor="0.99" vaporized=""/>
    <tripinfo id="car_38" depart="131.00" departLane="s22B_0" departPos="5.10" departSpeed="0.00" departDelay="8.00" arrival="238.00" arrivalLane="B2n2_1" arrivalPos="189.60" arrivalSpeed="15.17" duration="107.00" routeLength="394.90" waitingTime="52.00" waitingCount="1" stopTime="0.00" timeLoss="80.80" rerouteNo="0" devices="tripinfo_car_38" vType="typeCar" speedFactor="1.10" vaporized=""/>
    <tripinfo id="car_65" depart="177.00" departLane="e2B_0" departPos="5.10" departSpeed="0.00" departDelay="0.00" arrival="239.00" arrivalLane="A2w_0" arrivalPos="189.60" arrivalSpeed="12.20" duration="62.00" routeLength="594.90" waitingTime="0.00" waitingCount="0" stopTime="0.00" timeLoss="13.13" rerouteNo="0" devices="tripinfo_car_65" vType="typeCar" speedFactor="0.88" vaporized=""/>
    <tripinfo id="car_45" depart="142.00" departLane="n22B_0" departPos="5.10" departSpeed="0.00" departDelay="6.00" arrival="240.00" arrivalLane="B2s2_1" arrivalPos="189.60" arrivalSpeed="15.10" duration="98.00" routeLength="394.90" waitingTime="43.00" waitingCount="1" stopTime="0.00" timeLoss="71.57" rerouteNo="0" devices="tripinfo_car_45" vType="typeCar" speedFactor="1.09" vaporized=""/>
    <tripinfo id="car_42" depart="137.00" departLane="n22B_0" departPos="5.10" departSpeed="0.00" departDelay="8.00" arrival="240.00" arrivalLane="B2s2_0" arrivalPos="189.60" arrivalSpeed="15.07" duration="103.00" routeLength="394.90" waitingTime="48.00" waitingCount="1" stopTime="0.00" timeLoss="76.41" rerouteNo="0" devices="tripinfo_car_42" vType="typeCar" speedFactor="1.09" vaporized=""/>
    <tripinfo id="car_39" depart="136.00" departLane="s22B_0" departPos="5.10" departSpeed="0.00" departDelay="10.00" arrival="240.00" arrivalLane="B2n2_0" arrivalPos="189.60" arrivalSpeed="12.39" duration="104.00" routeLength="394.90" waitingTime="50.00" waitingCount="1" stopTime="0.00" timeLoss="71.80" rerouteNo="0" devices="tripinfo_car_39" vType="typeCar" speedFactor="0.90" vaporized=""/>
    <tripinfo id="car_78" depart="209.00" departLane="n12A_0" departPos="5.10" departSpeed="0.00" departDelay="0.00" arrival="249.00" arrivalLane="A2s1_0" arrivalPos="189.60" arrivalSpeed="13.60" duration="40.00" routeLength="394.90" waitingTime="0.00" waitingCount="0" stopTime="0.00" timeLoss="11.32" rerouteNo="0" devices="tripinfo_car_78" vType="typeCar" speedFactor="1.01" vaporized=""/>
    <tripinfo id="car_55" depart="154.00" departLane="n22B_0" departPos="5.10" departSpeed="0.00" departDelay="3.00" arrival="255.00" arrivalLane="B2s2_1" arrivalPos="189.60" arrivalSpeed="13.56" duration="101.00" routeLength="394.90" waitingTime="36.00" waitingCount="2" stopTime="0.00" timeLoss="72.35" rerouteNo="0" devices="tripinfo_car_55" vType="typeCar" speedFactor="1.00" vaporized=""/>
    <tripinfo id="car_44" depart="146.00" departLane="s22B_0" departPos="5.10" departSpeed="0.00" departDelay="16.00" arrival="255.00" arrivalLane="B2n2_0" arrivalPos="189.60" arrivalSpeed="14.36" duration="109.00" routeLength="394.90" waitingTime="47.00" waitingCount="2" stopTime="0.00" timeLoss="81.50" rerouteNo="0" devices="tripinfo_car_44" vType="typeCar" speedFactor="1.04" vaporized=""/>
    <tripinfo id="car_53" depart="149.00" departLane="n22B_0" departPos="5.10" departSpeed="0.00" departDelay="0.00" arrival="256.00" arrivalLane="B2s2_0" arrivalPos="189.60" arrivalSpeed="15.13" duration="107.00" routeLength="394.90" waitingTime="45.00" waitingCount="2" stopTime="0.00" timeLoss="80.32" rerouteNo="0" devices="tripinfo_car_53" vType="typeCar" speedFactor="1.10" vaporized=""/>
    <tripinfo id="car_57" depart="162.00" departLane="n22B_0" departPos="5.10" departSpeed="0.00" departDelay="0.00" arrival="257.00" arrivalLane="B2s2_0" arrivalPos="189.60" arrivalSpeed="15.80" duration="95.00" routeLength="394.90" waitingTime="34.00" waitingCount="2" stopTime="0.00" timeLoss="70.11" rerouteNo="0" devices="tripinfo_car_57" vType="typeCar" speedFactor="1.14" vaporized=""/>
    <tripinfo id="car_41" depart="141.00" departLane="s22B_0" departPos="5.10" departSpeed="0.00" departDelay="14.00" arrival="257.00" arrivalLane="B2n2_0" arrivalPos="189.60" arrivalSpeed="12.98" duration="116.00" routeLength="394.90" waitingTime="54.00" waitingCount="2" stopTime="0.00" timeLoss="85.64" rerouteNo="0" devices="tripinfo_car_41" vType="typeCar" speedFactor="0.96" vaporized=""/>
    <tripinfo id="car_49" depart="156.00" departLane="s22B_0" departPos="5.10" departSpeed="0.00" departDelay="15.00" arrival="258.00" arrivalLane="B2n2_0" arrivalPos="189.60" arrivalSpeed="11.72" duration="102.00" routeLength="394.90" waitingTime="38.00" waitingCount="2" stopTime="0.00" timeLoss="68.47" rerouteNo="0" devices="tripinfo_car_49" vType="typeCar" speedFactor="0.85" vaporized=""/>
    <tripinfo id="car_58" depart="167.00" departLane="n22B_0" departPos="5.10" departSpeed="0.00" departDelay="3.00" arrival="259.00" arrivalLane="B2s2_1" arrivalPos="189.60" arrivalSpeed="14.05" duration="92.00" routeLength="394.90" waitingTime="27.00" waitingCount="2" stopTime="0.00" timeLoss="63.46" rerouteNo="0" devices="tripinfo_car_58" vType="typeCar" speedFactor="1.02" vaporized=""/>
    <tripinfo id="car_47" depart="151.00" departLane="s22B_0" departPos="5.10" departSpeed="0.00" departDelay="12.00" arrival="260.00" arrivalLane="B2n2_1" arrivalPos="189.60" arrivalSpeed="12.47" duration="109.00" routeLength="394.90" waitingTime="42.00" waitingCount="2" stopTime="0.00" timeLoss="76.77" rerouteNo="0" devices="tripinfo_car_47" vType="typeCar" speedFactor="0.90" vaporized=""/>
    <tripinfo id="car_61" depart="177.00" departLane="n22B_0" departPos="5.10" departSpeed="0.00" departDelay="5.00" arrival="260.00" arrivalLane="B2s2_1" arrivalPos="189.60" arrivalSpeed="14.61" duration="83.00" routeLength="394.90" waitingTime="18.00" waitingCount="2" stopTime="0.00" timeLoss="57.44" rerouteNo="0" devices="tripinfo_car_61" vType="typeCar" speedFactor="1.12" vaporized=""/>
    <tripinfo id="car_59" depart="172.00" departLane="n22B_0" departPos="5.10" departSpeed="0.00" departDelay="5.00" arrival="260.00" arrivalLane="B2s2_0" arrivalPos="189.60" arrivalSpeed="13.33" duration="88.00" routeLength="394.90" waitingTime="24.00" waitingCount="2" stopTime="0.00" timeLoss="58.44" rerouteNo="0" devices="tripinfo_car_59" vType="typeCar" speedFactor="0.97" vaporized=""/>
    <tripinfo id="car_51" depart="166.00" departLane="s22B_0" departPos="5.10" departSpeed="0.00" departDelay="22.00" arrival="260.00" arrivalLane="B2n2_0" arrivalPos="189.60" arrivalSpeed="13.18" duration="94.00" routeLength="394.90" waitingTime="29.00" waitingCount="2" stopTime="0.00" timeLoss="69.30" rerouteNo="0" devices="tripinfo_car_51" vType="typeCar" speedFactor="1.17" vaporized=""/>
    <tripinfo id="car_50" depart="161.00" departLane="s22B_0" departPos="5.10" departSpeed="0.00" departDelay="19.00" arrival="262.00" arrivalLane="B2n2_1" arrivalPos="189.60" arrivalSpeed="11.83" duration="101.00" routeLength="394.90" waitingTime="35.00" waitingCount="2" stopTime="0.00" timeLoss="67.17" rerouteNo="0" devices="tripinfo_car_50" vType="typeCar" speedFactor="0.85" vaporized=""/>
    <tripinfo id="car_66" depart="183.00" departLane="n22B_0" departPos="5.10" departSpeed="0.00" departDelay="5.00" arrival="262.00" arrivalLane="B2s2_0" arrivalPos="189.60" arrivalSpeed="12.39" duration="79.00" routeLength="394.90" waitingTime="16.00" waitingCount="2" stopTime="0.00" timeLoss="47.60" rerouteNo="0" devices="tripinfo_car_66" vType="typeCar" speedFactor="0.91" vaporized=""/>
    <tripinfo id="car_60" depart="176.00" departLane="s22B_0" departPos="5.10" departSpeed="0.00" departDelay="7.00" arrival="262.00" arrivalLane="B2n2_0" arrivalPos="189.60" arrivalSpeed="14.76" duration="86.00" routeLength="394.90" waitingTime="21.00" waitingCount="2" stopTime="0.00" timeLoss="59.00" rerouteNo="0" devices="tripinfo_car_60" vType="typeCar" speedFactor="1.08" vaporized=""/>
    <tripinfo id="car_67" depart="188.00" departLane="n22B_0" departPos="5.10" departSpeed="0.00" departDelay="9.00" arrival="263.00" arrivalLane="B2s2_1" arrivalPos="189.60" arrivalSpeed="12.31" duration="75.00" routeLength="394.90" waitingTime="8.00" waitingCount="2" stopTime="0.00" timeLoss="43.35" rerouteNo="0" devices="tripinfo_car_67" vType="typeCar" speedFactor="0.91" vaporized=""/>
    <tripinfo id="car_54" depart="171.00" departLane="s22B_0" departPos="5.10" departSpeed="0.00" departDelay="22.00" arrival="264.00" arrivalLane="B2n2_1" arrivalPos="189.60" arrivalSpeed="12.58" duration="93.00" routeLength="394.90" waitingTime="26.00" waitingCount="2" stopTime="0.00" timeLoss="63.83" rerouteNo="0" devices="tripinfo_car_54" vType="typeCar" speedFactor="1.00" vaporized=""/>
    <tripinfo id="car_70" depart="193.00" departLane="n22B_0" departPos="5.10" departSpeed="0.00" departDelay="10.00" arrival="264.00" arrivalLane="B2s2_0" arrivalPos="189.60" arrivalSpeed="14.03" duration="71.00" routeLength="394.90" waitingTime="7.00" waitingCount="2" stopTime="0.00" timeLoss="42.76" rerouteNo="0" devices="tripinfo_car_70" vType="typeCar" speedFactor="1.02" vaporized=""/>
    <tripinfo id="car_64" depart="187.00" departLane="s22B_0" departPos="5.10" departSpeed="0.00" departDelay="10.00" arrival="264.00" arrivalLane="B2n2_0" arrivalPos="189.60" arrivalSpeed="12.84" duration="77.00" routeLength="394.90" waitingTime="12.00" waitingCount="2" stopTime="0.00" timeLoss="46.68" rerouteNo="0" devices="tripinfo_car_64" vType="typeCar" speedFactor="0.94" vaporized=""/>
    <tripinfo id="car_63" depart="181.00" departLane="s22B_0" departPos="5.10" departSpeed="0.00" departDelay="7.00" arrival="265.00" arrivalLane="B2n2_1" arrivalPos="189.60" arrivalSpeed="12.78" duration="84.00" routeLength="394.90" waitingTime="18.00" waitingCount="3" stopTime="0.00" timeLoss="54.93" rerouteNo="0" devices="tripinfo_car_63" vType="typeCar" speedFactor="0.99" vaporized=""/>
    <tripinfo id="car_74" depart="198.00" departLane="n22B_0" departPos="5.10" departSpeed="0.00" departDelay="1.00" arrival="265.00" arrivalLane="B2s2_1" arrivalPos="189.60" arrivalSpeed="13.26" duration="67.00" routeLength="394.90" waitingTime="4.00" waitingCount="1" stopTime="0.00" timeLoss="36.26" rerouteNo="0" devices="tripinfo_car_74" vType="typeCar" speedFactor="0.96" vaporized=""/>