<?xml version="1.0" encoding="UTF-8"?>

<!-- generated on Wed Oct 10 11:59:29 2018 by Eclipse SUMO GUI Version 1.0.0
<configuration xmlns:xsi="http://www.w3.org/2001/XMLSchema-instance" xsi:noNamespaceSchemaLocation="http://sumo.dlr.de/xsd/sumoConfiguration.xsd">

    <input>
        <net-file value="data/cross.net.xml"/>
        <route-files value="data/cross.rou.xml"/>
        <additional-files value="data/cross.det.xml"/>
    </input>

    <output>
        <tripinfo-output value="tripinfo.xml"/>
    </output>

    <time>
        <begin value="0"/>
    </time>

    <report>
        <verbose value="true"/>
        <no-step-log value="true"/>
    </report>

    <traci_server>
        <remote-port value="62260"/>
    </traci_server>

    <gui_only>
        <gui-settings-file value="data/cross.settings.xml"/>
    </gui_only>

</configuration>
-->

<tripinfos xmlns:xsi="http://www.w3.org/2001/XMLSchema-instance" xsi:noNamespaceSchemaLocation="http://sumo.dlr.de/xsd/tripinfo_file.xsd">
    <tripinfo id="car_3" depart="8.00" departLane="n22B_0" departPos="5.10" departSpeed="0.00" departDelay="0.00" arrival="48.00" arrivalLane="B2s2_1" arrivalPos="189.60" arrivalSpeed="14.89" duration="40.00" routeLength="394.90" waitingTime="0.00" waitingCount="0" stopTime="0.00" timeLoss="13.48" rerouteNo="0" devices="tripinfo_car_3" vType="typeCar" speedFactor="1.08" vaporized=""/>
    <tripinfo id="car_1" depart="1.00" departLane="s22B_0" departPos="5.10" departSpeed="0.00" departDelay="0.00" arrival="56.00" arrivalLane="B2n2_0" arrivalPos="189.60" arrivalSpeed="13.00" duration="55.00" routeLength="394.90" waitingTime="3.00" waitingCount="1" stopTime="0.00" timeLoss="24.43" rerouteNo="0" devices="tripinfo_car_1" vType="typeCar" speedFactor="0.94" vaporized=""/>
    <tripinfo id="car_0" depart="0.00" departLane="n22B_0" departPos="5.10" departSpeed="0.00" departDelay="0.00" arrival="56.00" arrivalLane="B2s2_0" arrivalPos="189.60" arrivalSpeed="14.67" duration="56.00" routeLength="394.90" waitingTime="2.00" waitingCount="1" stopTime="0.00" timeLoss="28.57" rerouteNo="0" devices="tripinfo_car_0" vType="typeCar" speedFactor="1.06" vaporized=""/>
    <tripinfo id="car_6" depart="31.00" departLane="n22B_0" departPos="5.10" departSpeed="0.00" departDelay="0.00" arrival="70.00" arrivalLane="B2s2_0" arrivalPos="189.60" arrivalSpeed="14.26" duration="39.00" routeLength="394.90" waitingTime="0.00" waitingCount="0" stopTime="0.00" timeLoss="11.60" rerouteNo="0" devices="tripinfo_car_6" vType="typeCar" speedFactor="1.05" vaporized=""/>
    <tripinfo id="car_5" depart="29.00" departLane="s22B_0" departPos="5.10" departSpeed="0.00" departDelay="0.00" arrival="74.00" arrivalLane="B2n2_1" arrivalPos="189.60" arrivalSpeed="11.31" duration="45.00" routeLength="394.90" waitingTime="0.00" waitingCount="0" stopTime="0.00" timeLoss="10.27" rerouteNo="0" devices="tripinfo_car_5" vType="typeCar" speedFactor="0.83" vaporized=""/>
    <tripinfo id="car_10" depart="36.00" departLane="n22B_0" departPos="5.10" departSpeed="0.00" departDelay="3.00" arrival="75.00" arrivalLane="B2s2_0" arrivalPos="189.60" arrivalSpeed="14.91" duration="39.00" routeLength="394.90" waitingTime="0.00" waitingCount="0" stopTime="0.00" timeLoss="12.37" rerouteNo="0" devices="tripinfo_car_10" vType="typeCar" speedFactor="1.09" vaporized=""/>
    <tripinfo id="car_4" depart="22.00" departLane="s22B_0" departPos="5.10" departSpeed="0.00" departDelay="0.00" arrival="76.00" arrivalLane="B2n2_0" arrivalPos="189.60" arrivalSpeed="14.30" duration="54.00" routeLength="394.90" waitingTime="1.00" waitingCount="1" stopTime="0.00" timeLoss="25.84" rerouteNo="0" devices="tripinfo_car_4" vType="typeCar" speedFactor="1.03" vaporized=""/>
    <tripinfo id="car_7" depart="34.00" departLane="s22B_0" departPos="5.10" departSpeed="0.00" departDelay="3.00" arrival="78.00" arrivalLane="B2n2_1" arrivalPos="189.60" arrivalSpeed="12.19" duration="44.00" routeLength="394.90" waitingTime="0.00" waitingCount="0" stopTime="0.00" timeLoss="10.94" rerouteNo="0" devices="tripinfo_car_7" vType="typeCar" speedFactor="0.89" vaporized=""/>
    <tripinfo id="car_14" depart="40.00" departLane="s22B_0" departPos="5.10" departSpeed="0.00" departDelay="0.00" arrival="80.00" arrivalLane="B2n2_0" arrivalPos="189.60" arrivalSpeed="13.71" duration="40.00" routeLength="394.90" waitingTime="0.00" waitingCount="0" stopTime="0.00" timeLoss="11.31" rerouteNo="0" devices="tripinfo_car_14" vType="typeCar" speedFactor="0.99" vaporized=""/>
    <tripinfo id="car_11" depart="41.00" departLane="n22B_0" departPos="5.10" departSpeed="0.00" departDelay="5.00" arrival="81.00" arrivalLane="B2s2_0" arrivalPos="189.60" arrivalSpeed="14.01" duration="40.00" routeLength="394.90" waitingTime="0.00" waitingCount="0" stopTime="0.00" timeLoss="11.72" rerouteNo="0" devices="tripinfo_car_11" vType="typeCar" speedFactor="1.03" vaporized=""/>
    <tripinfo id="car_15" depart="45.00" departLane="s22B_0" departPos="5.10" departSpeed="0.00" departDelay="4.00" arrival="86.00" arrivalLane="B2n2_0" arrivalPos="189.60" arrivalSpeed="12.87" duration="41.00" routeLength="394.90" waitingTime="0.00" waitingCount="0" stopTime="0.00" timeLoss="9.88" rerouteNo="0" devices="tripinfo_car_15" vType="typeCar" speedFactor="0.93" vaporized=""/>
    <tripinfo id="car_8" depart="31.00" departLane="w2A_0" departPos="5.10" departSpeed="0.00" departDelay="0.00" arrival="88.00" arrivalLane="B2e_1" arrivalPos="189.60" arrivalSpeed="12.70" duration="57.00" routeLength="594.90" waitingTime="0.00" waitingCount="0" stopTime="0.00" timeLoss="11.29" rerouteNo="0" devices="tripinfo_car_8" vType="typeCar" speedFactor="0.94" vaporized=""/>
    <tripinfo id="car_13" depart="37.00" departLane="s12A_0" departPos="5.10" departSpeed="0.00" departDelay="0.00" arrival="95.00" arrivalLane="A2n1_0" arrivalPos="189.60" arrivalSpeed="15.32" duration="58.00" routeLength="394.90" waitingTime="6.00" waitingCount="1" stopTime="0.00" timeLoss="32.62" rerouteNo="0" devices="tripinfo_car_13" vType="typeCar" speedFactor="1.12" vaporized=""/>
    <tripinfo id="car_17" depart="42.00" departLane="n12A_0" departPos="5.10" departSpeed="0.00" departDelay="0.00" arrival="95.00" arrivalLane="A2s1_0" arrivalPos="189.60" arrivalSpeed="12.93" duration="53.00" routeLength="394.90" waitingTime="0.00" waitingCount="0" stopTime="0.00" timeLoss="21.87" rerouteNo="0" devices="tripinfo_car_17" vType="typeCar" speedFactor="0.94" vaporized=""/>
    <tripinfo id="car_2" depart="1.00" departLane="w2A_0" departPos="5.10" departSpeed="0.00" departDelay="0.00" arrival="96.00" arrivalLane="B2e_0" arrivalPos="189.60" arrivalSpeed="13.67" duration="95.00" routeLength="594.90" waitingTime="15.00" waitingCount="2" stopTime="0.00" timeLoss="52.34" rerouteNo="0" devices="tripinfo_car_2" vType="typeCar" speedFactor="1.01" vaporized=""/>
    <tripinfo id="car_25" depart="58.00" departLane="s12A_0" departPos="5.10" departSpeed="0.00" departDelay="0.00" arrival="100.00" arrivalLane="A2n1_0" arrivalPos="189.60" arrivalSpeed="12.08" duration="42.00" routeLength="394.90" waitingTime="0.00" waitingCount="0" stopTime="0.00" timeLoss="9.17" rerouteNo="0" devices="tripinfo_car_25" vType="typeCar" speedFactor="0.87" vaporized=""/>
    <tripinfo id="car_9" depart="31.00" departLane="e2B_0" departPos="5.10" departSpeed="0.00" departDelay="0.00" arrival="114.00" arrivalLane="A2w_0" arrivalPos="189.60" arrivalSpeed="11.75" duration="83.00" routeLength="594.90" waitingTime="10.00" waitingCount="1" stopTime="0.00" timeLoss="32.70" rerouteNo="0" devices="tripinfo_car_9" vType="typeCar" speedFactor="0.86" vaporized=""/>
    <tripinfo id="car_22" depart="55.00" departLane="s22B_0" departPos="5.10" departSpeed="0.00" departDelay="4.00" arrival="115.00" arrivalLane="B2n2_1" arrivalPos="189.60" arrivalSpeed="13.32" duration="60.00" routeLength="394.90" waitingTime="7.00" waitingCount="1" stopTime="0.00" timeLoss="30.82" rerouteNo="0" devices="tripinfo_car_22" vType="typeCar" speedFactor="0.98" vaporized=""/>
    <tripinfo id="car_18" depart="50.00" departLane="s22B_0" departPos="5.10" departSpeed="0.00" departDelay="8.00" arrival="115.00" arrivalLane="B2n2_0" arrivalPos="189.60" arrivalSpeed="13.00" duration="65.00" routeLength="394.90" waitingTime="12.00" waitingCount="1" stopTime="0.00" timeLoss="34.53" rerouteNo="0" devices="tripinfo_car_18" vType="typeCar" speedFactor="0.94" vaporized=""/>
    <tripinfo id="car_12" depart="46.00" departLane="n22B_0" departPos="5.10" departSpeed="0.00" departDelay="9.00" arrival="116.00" arrivalLane="B2s2_0" arrivalPos="189.60" arrivalSpeed="14.38" duration="70.00" routeLength="394.90" waitingTime="15.00" waitingCount="1" stopTime="0.00" timeLoss="41.93" rerouteNo="0" devices="tripinfo_car_12" vType="typeCar" speedFactor="1.05" vaporized=""/>
    <tripinfo id="car_16" depart="51.00" departLane="n22B_0" departPos="5.10" departSpeed="0.00" departDelay="9.00" arrival="117.00" arrivalLane="B2s2_1" arrivalPos="189.60" arrivalSpeed="11.95" duration="66.00" routeLength="394.90" waitingTime="12.00" waitingCount="1" stopTime="0.00" timeLoss="33.38" rerouteNo="0" devices="tripinfo_car_16" vType="typeCar" speedFactor="0.88" vaporized=""/>
    <tripinfo id="car_30" depart="69.00" departLane="s22B_0" departPos="5.10" departSpeed="0.00" departDelay="0.00" arrival="117.00" arrivalLane="B2n2_0" arrivalPos="189.60" arrivalSpeed="13.81" duration="48.00" routeLength="394.90" waitingTime="0.00" waitingCount="0" stopTime="0.00" timeLoss="23.41" rerouteNo="0" devices="tripinfo_car_30" vType="typeCar" speedFactor="1.18" vaporized=""/>
    <tripinfo id="car_19" depart="56.00" departLane="n22B_0" departPos="5.10" departSpeed="0.00" departDelay="13.00" arrival="118.00" arrivalLane="B2s2_0" arrivalPos="189.60" arrivalSpeed="15.76" duration="62.00" routeLength="394.90" waitingTime="8.00" waitingCount="1" stopTime="0.00" timeLoss="36.85" rerouteNo="0" devices="tripinfo_car_19" vType="typeCar" speedFactor="1.16" vaporized=""/>
    <tripinfo id="car_20" depart="61.00" departLane="n22B_0" departPos="5.10" departSpeed="0.00" departDelay="17.00" arrival="119.00" arrivalLane="B2s2_1" arrivalPos="189.60" arrivalSpeed="13.61" duration="58.00" routeLength="394.90" waitingTime="3.00" waitingCount="1" stopTime="0.00" timeLoss="29.48" rerouteNo="0" devices="tripinfo_car_20" vType="typeCar" speedFactor="1.02" vaporized=""/>
    <tripinfo id="car_21" depart="66.00" departLane="n22B_0" departPos="5.10" departSpeed="0.00" departDelay="16.00" arrival="120.00" arrivalLane="B2s2_0" arrivalPos="189.60" arrivalSpeed="13.75" duration="54.00" routeLength="394.90" waitingTime="0.00" waitingCount="0" stopTime="0.00" timeLoss="25.56" rerouteNo="0" devices="tripinfo_car_21" vType="typeCar" speedFactor="1.01" vaporized=""/>
    <tripinfo id="car_23" depart="71.00" departLane="n22B_0" departPos="5.10" departSpeed="0.00" departDelay="18.00" arrival="121.00" arrivalLane="B2s2_1" arrivalPos="189.60" arrivalSpeed="12.08" duration="50.00" routeLength="394.90" waitingTime="0.00" waitingCount="0" stopTime="0.00" timeLoss="17.61" rerouteNo="0" devices="tripinfo_car_23" vType="typeCar" speedFactor="0.89" vaporized=""/>
    <tripinfo id="car_33" depart="80.00" departLane="s22B_0" departPos="5.10" departSpeed="0.00" departDelay="0.00" arrival="145.00" arrivalLane="B2n2_0" arrivalPos="189.60" arrivalSpeed="16.08" duration="65.00" routeLength="394.90" waitingTime="13.00" waitingCount="1" stopTime="0.00" timeLoss="39.94" rerouteNo="0" devices="tripinfo_car_33" vType="typeCar" speedFactor="1.17" vaporized=""/>
    <tripinfo id="car_35" depart="90.00" departLane="s22B_0" departPos="5.10" departSpeed="0.00" departDelay="0.00" arrival="146.00" arrivalLane="B2n2_1" arrivalPos="189.60" arrivalSpeed="13.83" duration="56.00" routeLength="394.90" waitingTime="3.00" waitingCount="1" stopTime="0.00" timeLoss="28.02" rerouteNo="0" devices="tripinfo_car_35" vType="typeCar" speedFactor="1.02" vaporized=""/>
    <tripinfo id="car_37" depart="95.00" departLane="s22B_0" departPos="5.10" departSpeed="0.00" departDelay="2.00" arrival="146.00" arrivalLane="B2n2_0" arrivalPos="189.60" arrivalSpeed="16.15" duration="51.00" routeLength="394.90" waitingTime="0.00" waitingCount="0" stopTime="0.00" timeLoss="26.76" rerouteNo="0" devices="tripinfo_car_37" vType="typeCar" speedFactor="1.18" vaporized=""/>
    <tripinfo id="car_26" depart="81.00" departLane="n22B_0" departPos="5.10" departSpeed="0.00" departDelay="18.00" arrival="147.00" arrivalLane="B2s2_1" arrivalPos="189.60" arrivalSpeed="12.45" duration="66.00" routeLength="394.90" waitingTime="12.00" waitingCount="1" stopTime="0.00" timeLoss="34.10" rerouteNo="0" devices="tripinfo_car_26" vType="typeCar" speedFactor="0.92" vaporized=""/>
    <tripinfo id="car_24" depart="76.00" departLane="n22B_0" departPos="5.10" departSpeed="0.00" departDelay="18.00" arrival="147.00" arrivalLane="B2s2_0" arrivalPos="189.60" arrivalSpeed="11.11" duration="71.00" routeLength="394.90" waitingTime="15.00" waitingCount="1" stopTime="0.00" timeLoss="35.67" rerouteNo="0" devices="tripinfo_car_24" vType="typeCar" speedFactor="0.83" vaporized=""/>
    <tripinfo id="car_28" depart="91.00" departLane="n22B_0" departPos="5.10" departSpeed="0.00" departDelay="25.00" arrival="148.00" arrivalLane="B2s2_1" arrivalPos="189.60" arrivalSpeed="14.08" duration="57.00" routeLength="394.90" waitingTime="3.00" waitingCount="1" stopTime="0.00" timeLoss="31.70" rerouteNo="0" devices="tripinfo_car_28" vType="typeCar" speedFactor="1.13" vaporized=""/>
    <tripinfo id="car_27" depart="86.00" departLane="n22B_0" departPos="5.10" departSpeed="0.00" departDelay="22.00" arrival="148.00" arrivalLane="B2s2_0" arrivalPos="189.60" arrivalSpeed="11.75" duration="62.00" routeLength="394.90" waitingTime="7.00" waitingCount="1" stopTime="0.00" timeLoss="31.88" rerouteNo="0" devices="tripinfo_car_27" vType="typeCar" speedFactor="0.95" vaporized=""/>
    <tripinfo id="car_39" depart="100.00" departLane="s22B_0" departPos="5.10" departSpeed="0.00" departDelay="6.00" arrival="149.00" arrivalLane="B2n2_1" arrivalPos="189.60" arrivalSpeed="12.24" duration="49.00" routeLength="394.90" waitingTime="0.00" waitingCount="0" stopTime="0.00" timeLoss="16.66" rerouteNo="0" devices="tripinfo_car_39" vType="typeCar" speedFactor="0.90" vaporized=""/>
    <tripinfo id="car_31" depart="101.00" departLane="n22B_0" departPos="5.10" departSpeed="0.00" departDelay="30.00" arrival="150.00" arrivalLane="B2s2_1" arrivalPos="189.60" arrivalSpeed="14.46" duration="49.00" routeLength="394.90" waitingTime="0.00" waitingCount="0" stopTime="0.00" timeLoss="23.83" rerouteNo="0" devices="tripinfo_car_31" vType="typeCar" speedFactor="1.15" vaporized=""/>
    <tripinfo id="car_29" depart="96.00" departLane="n22B_0" departPos="5.10" departSpeed="0.00" departDelay="28.00" arrival="150.00" arrivalLane="B2s2_0" arrivalPos="189.60" arrivalSpeed="12.71" duration="54.00" routeLength="394.90" waitingTime="1.00" waitingCount="1" stopTime="0.00" timeLoss="22.97" rerouteNo="0" devices="tripinfo_car_29" vType="typeCar" speedFactor="0.93" vaporized=""/>
    <tripinfo id="car_32" depart="106.00" departLane="n22B_0" departPos="5.10" departSpeed="0.00" departDelay="30.00" arrival="165.00" arrivalLane="B2s2_0" arrivalPos="189.60" arrivalSpeed="13.82" duration="59.00" routeLength="394.90" waitingTime="5.00" waitingCount="1" stopTime="0.00" timeLoss="30.66" rerouteNo="0" devices="tripinfo_car_32" vType="typeCar" speedFactor="1.01" vaporized=""/>
    <tripinfo id="car_41" depart="105.00" departLane="s22B_0" departPos="5.10" departSpeed="0.00" departDelay="4.00" arrival="166.00" arrivalLane="B2n2_0" arrivalPos="189.60" arrivalSpeed="13.20" duration="61.00" routeLength="394.90" waitingTime="8.00" waitingCount="1" stopTime="0.00" timeLoss="31.09" rerouteNo="0" devices="tripinfo_car_41" vType="typeCar" speedFactor="0.96" vaporized=""/>
    <tripinfo id="car_43" depart="110.00" departLane="s22B_0" departPos="5.10" departSpeed="0.00" departDelay="2.00" arrival="166.00" arrivalLane="B2n2_1" arrivalPos="189.60" arrivalSpeed="14.33" duration="56.00" routeLength="394.90" waitingTime="2.00" waitingCount="1" stopTime="0.00" timeLoss="28.06" rerouteNo="0" devices="tripinfo_car_43" vType="typeCar" speedFactor="1.04" vaporized=""/>
    <tripinfo id="car_34" depart="111.00" departLane="n22B_0" departPos="5.10" departSpeed="0.00" departDelay="24.00" arrival="166.00" arrivalLane="B2s2_1" arrivalPos="189.60" arrivalSpeed="13.52" duration="55.00" routeLength="394.90" waitingTime="3.00" waitingCount="1" stopTime="0.00" timeLoss="25.99" rerouteNo="0" devices="tripinfo_car_34" vType="typeCar" speedFactor="0.99" vaporized=""/>
    <tripinfo id="car_44" depart="115.00" departLane="s22B_0" departPos="5.10" departSpeed="0.00" departDelay="0.00" arrival="168.00" arrivalLane="B2n2_0" arrivalPos="189.60" arrivalSpeed="14.19" duration="53.00" routeLength="394.90" waitingTime="0.00" waitingCount="0" stopTime="0.00" timeLoss="25.16" rerouteNo="0" devices="tripinfo_car_44" vType="typeCar" speedFactor="1.04" vaporized=""/>
    <tripinfo id="car_45" depart="120.00" departLane="s22B_0" departPos="5.10" departSpeed="0.00" departDelay="3.00" arrival="168.00" arrivalLane="B2n2_1" arrivalPos="189.60" arrivalSpeed="14.84" duration="48.00" routeLength="394.90" waitingTime="0.00" waitingCount="0" stopTime="0.00" timeLoss="20.96" rerouteNo="0" devices="tripinfo_car_45" vType="typeCar" speedFactor="1.09" vaporized=""/>
    <tripinfo id="car_40" depart="121.00" departLane="n22B_0" departPos="5.10" departSpeed="0.00" departDelay="21.00" arrival="168.00" arrivalLane="B2s2_1" arrivalPos="189.60" arrivalSpeed="14.28" duration="47.00" routeLength="394.90" waitingTime="0.00" waitingCount="0" stopTime="0.00" timeLoss="18.62" rerouteNo="0" devices="tripinfo_car_40" vType="typeCar" speedFactor="1.03" vaporized=""/>
    <tripinfo id="car_36" depart="116.00" departLane="n22B_0" departPos="5.10" departSpeed="0.00" departDelay="23.00" arrival="168.00" arrivalLane="B2s2_0" arrivalPos="189.60" arrivalSpeed="13.45" duration="52.00" routeLength="394.90" waitingTime="0.00" waitingCount="0" stopTime="0.00" timeLoss="22.26" rerouteNo="0" devices="tripinfo_car_36" vType="typeCar" speedFactor="0.97" vaporized=""/>
    <tripinfo id="car_42" depart="101.00" departLane="e2B_0" departPos="5.10" departSpeed="0.00" departDelay="0.00" arrival="169.00" arrivalLane="A2w_0" arrivalPos="189.60" arrivalSpeed="15.17" duration="68.00" routeLength="594.90" waitingTime="2.00" waitingCount="1" stopTime="0.00" timeLoss="28.36" rerouteNo="0" devices="tripinfo_car_42" vType="typeCar" speedFactor="1.09" vaporized=""/>
    <tripinfo id="car_51" depart="130.00" departLane="s22B_0" departPos="5.10" departSpeed="0.00" departDelay="0.00" arrival="169.00" arrivalLane="B2n2_0" arrivalPos="189.60" arrivalSpeed="15.06" duration="39.00" routeLength="394.90" waitingTime="0.00" waitingCount="0" stopTime="0.00" timeLoss="14.63" rerouteNo="0" devices="tripinfo_car_51" vType="typeCar" speedFactor="1.17" vaporized=""/>
    <tripinfo id="car_47" depart="125.00" departLane="s22B_0" departPos="5.10" departSpeed="0.00" departDelay="1.00" arrival="170.00" arrivalLane="B2n2_1" arrivalPos="189.60" arrivalSpeed="12.27" duration="45.00" routeLength="394.90" waitingTime="0.00" waitingCount="0" stopTime="0.00" timeLoss="13.10" rerouteNo="0" devices="tripinfo_car_47" vType="typeCar" speedFactor="0.90" vaporized=""/>
    <tripinfo id="car_46" depart="126.00" departLane="n22B_0" departPos="5.10" departSpeed="0.00" departDelay="8.00" arrival="170.00" arrivalLane="B2s2_0" arrivalPos="189.60" arrivalSpeed="13.80" duration="44.00" routeLength="394.90" waitingTime="0.00" waitingCount="0" stopTime="0.00" timeLoss="14.57" rerouteNo="0" devices="tripinfo_car_46" vType="typeCar" speedFactor="1.00" vaporized=""/>
    <tripinfo id="car_50" depart="132.00" departLane="n22B_0" departPos="5.10" departSpeed="0.00" departDelay="4.00" arrival="176.00" arrivalLane="B2s2_0" arrivalPos="189.60" arrivalSpeed="11.66" duration="44.00" routeLength="394.90" waitingTime="0.00" waitingCount="0" stopTime="0.00" timeLoss="10.26" rerouteNo="0" devices="tripinfo_car_50" vType="typeCar" speedFactor="0.85" vaporized=""/>
    <tripinfo id="car_48" depart="124.00" departLane="w2A_0" departPos="5.10" departSpeed="0.00" departDelay="0.00" arrival="184.00" arrivalLane="B2e_1" arrivalPos="189.60" arrivalSpeed="11.87" duration="60.00" routeLength="594.90" waitingTime="0.00" waitingCount="0" stopTime="0.00" timeLoss="10.51" rerouteNo="0" devices="tripinfo_car_48" vType="typeCar" speedFactor="0.88" vaporized=""/>
    <tripinfo id="car_38" depart="93.00" departLane="w2A_0" departPos="5.10" departSpeed="0.00" departDelay="0.00" arrival="186.00" arrivalLane="B2e_0" arrivalPos="189.60" arrivalSpeed="15.22" duration="93.00" routeLength="594.90" waitingTime="18.00" waitingCount="1" stopTime="0.00" timeLoss="53.43" rerouteNo="0" devices="tripinfo_car_38" vType="typeCar" speedFactor="1.10" vaporized=""/>
    <tripinfo id="car_66" depart="161.00" departLane="n12A_0" departPos="5.10" departSpeed="0.00" departDelay="0.00" arrival="204.00" arrivalLane="A2s1_0" arrivalPos="189.60" arrivalSpeed="12.24" duration="43.00" routeLength="394.90" waitingTime="0.00" waitingCount="0" stopTime="0.00" timeLoss="10.90" rerouteNo="0" devices="tripinfo_car_66" vType="typeCar" speedFactor="0.91" vaporized=""/>
    <tripinfo id="car_57" depart="148.00" departLane="n22B_0" departPos="5.10" departSpeed="0.00" departDelay="0.00" arrival="205.00" arrivalLane="B2s2_1" arrivalPos="189.60" arrivalSpeed="15.48" duration="57.00" routeLength="394.90" waitingTime="5.00" waitingCount="1" stopTime="0.00" timeLoss="31.62" rerouteNo="0" devices="tripinfo_car_57" vType="typeCar" speedFactor="1.14" vaporized=""/>
    <tripinfo id="car_60" depart="151.00" departLane="s12A_0" departPos="5.10" departSpeed="0.00" departDelay="0.00" arrival="205.00" arrivalLane="A2n1_0" arrivalPos="189.60" arrivalSpeed="14.85" duration="54.00" routeLength="394.90" waitingTime="1.00" waitingCount="1" stopTime="0.00" timeLoss="27.06" rerouteNo="0" devices="tripinfo_car_60" vType="typeCar" speedFactor="1.08" vaporized=""/>
    <tripinfo id="car_53" depart="144.00" departLane="s22B_0" departPos="5.10" departSpeed="0.00" departDelay="0.00" arrival="206.00" arrivalLane="B2n2_0" arrivalPos="189.60" arrivalSpeed="14.83" duration="62.00" routeLength="394.90" waitingTime="9.00" waitingCount="1" stopTime="0.00" timeLoss="35.47" rerouteNo="0" devices="tripinfo_car_53" vType="typeCar" speedFactor="1.10" vaporized=""/>
    <tripinfo id="car_52" depart="137.00" departLane="n22B_0" departPos="5.10" departSpeed="0.00" departDelay="5.00" arrival="206.00" arrivalLane="B2s2_0" arrivalPos="189.60" arrivalSpeed="13.93" duration="69.00" routeLength="394.90" waitingTime="16.00" waitingCount="1" stopTime="0.00" timeLoss="40.44" rerouteNo="0" devices="tripinfo_car_52" vType="typeCar" speedFactor="1.02" vaporized=""/>
    <tripinfo id="car_54" depart="149.00" departLane="s22B_0" departPos="5.10" departSpeed="0.00" departDelay="3.00" arrival="206.00" arrivalLane="B2n2_1" arrivalPos="189.60" arrivalSpeed="13.83" duration="57.00" routeLength="394.90" waitingTime="2.00" waitingCount="1" stopTime="0.00" timeLoss="28.30" rerouteNo="0" devices="tripinfo_car_54" vType="typeCar" speedFactor="1.00" vaporized=""/>
    <tripinfo id="car_59" depart="158.00" departLane="n22B_0" departPos="5.10" departSpeed="0.00" departDelay="7.00" arrival="207.00" arrivalLane="B2s2_1" arrivalPos="189.60" arrivalSpeed="13.44" duration="49.00" routeLength="394.90" waitingTime="0.00" waitingCount="0" stopTime="0.00" timeLoss="19.41" rerouteNo="0" devices="tripinfo_car_59" vType="typeCar" speedFactor="0.97" vaporized=""/>
    <tripinfo id="car_70" depart="164.00" departLane="s12A_0" departPos="5.10" departSpeed="0.00" departDelay="0.00" arrival="207.00" arrivalLane="A2n1_0" arrivalPos="189.60" arrivalSpeed="14.07" duration="43.00" routeLength="394.90" waitingTime="0.00" waitingCount="0" stopTime="0.00" timeLoss="14.39" rerouteNo="0" devices="tripinfo_car_70" vType="typeCar" speedFactor="1.02" vaporized=""/>
    <tripinfo id="car_58" depart="153.00" departLane="n22B_0" departPos="5.10" departSpeed="0.00" departDelay="3.00" arrival="208.00" arrivalLane="B2s2_0" arrivalPos="189.60" arrivalSpeed="14.09" duration="55.00" routeLength="394.90" waitingTime="1.00" waitingCount="1" stopTime="0.00" timeLoss="26.96" rerouteNo="0" devices="tripinfo_car_58" vType="typeCar" speedFactor="1.02" vaporized=""/>
    <tripinfo id="car_61" depart="160.00" departLane="s22B_0" departPos="5.10" departSpeed="0.00" departDelay="7.00" arrival="208.00" arrivalLane="B2n2_1" arrivalPos="189.60" arrivalSpeed="15.22" duration="48.00" routeLength="394.90" waitingTime="0.00" waitingCount="0" stopTime="0.00" timeLoss="22.03" rerouteNo="0" devices="tripinfo_car_61" vType="typeCar" speedFactor="1.12" vaporized=""/>
    <tripinfo id="car_56" depart="155.00" departLane="s22B_0" departPos="5.10" departSpeed="0.00" departDelay="8.00" arrival="209.00" arrivalLane="B2n2_0" arrivalPos="189.60" arrivalSpeed="12.37" duration="54.00" routeLength="394.90" waitingTime="0.00" waitingCount="0" stopTime="0.00" timeLoss="21.94" rerouteNo="0" devices="tripinfo_car_56" vType="typeCar" speedFactor="0.90" vaporized=""/>
    <tripinfo id="car_62" depart="163.00" departLane="n22B_0" departPos="5.10" departSpeed="0.00" departDelay="9.00" arrival="209.00" arrivalLane="B2s2_1" arrivalPos="189.60" arrivalSpeed="14.06" duration="46.00" routeLength="394.90" waitingTime="0.00" waitingCount="0" stopTime="0.00" timeLoss="17.70" rerouteNo="0" devices="tripinfo_car_62" vType="typeCar" speedFactor="1.02" vaporized=""/>
    <tripinfo id="car_55" depart="146.00" departLane="w2A_0" departPos="5.10" departSpeed="0.00" departDelay="0.00" arrival="216.00" arrivalLane="B2e_0" arrivalPos="189.60" arrivalSpeed="13.45" duration="70.00" routeLength="594.90" waitingTime="1.00" waitingCount="1" stopTime="0.00" timeLoss="26.11" rerouteNo="0" devices="tripinfo_car_55" vType="typeCar" speedFactor="1.00" vaporized=""/>
    <tripinfo id="car_49" depart="124.00" departLane="e2B_0" departPos="5.10" departSpeed="0.00" departDelay="0.00" arrival="217.00" arrivalLane="A2w_0" arrivalPos="189.60" arrivalSpeed="11.46" duration="93.00" routeLength="594.90" waitingTime="11.00" waitingCount="2" stopTime="0.00" timeLoss="41.71" rerouteNo="0" devices="tripinfo_car_49" vType="typeCar" speedFactor="0.85" vaporized=""/>
    <tripinfo id="car_68" depart="163.00" departLane="e2B_0" departPos="5.10" departSpeed="0.00" departDelay="0.00" arrival="226.00" arrivalLane="A2w_0" arrivalPos="189.60" arrivalSpeed="14.42" duration="63.00" routeLength="594.90" waitingTime="0.00" waitingCount="0" stopTime="0.00" timeLoss="21.52" rerouteNo="0" devices="tripinfo_car_68" vType="typeCar" speedFactor="1.04" vaporized=""/>
    <tripinfo id="car_63" depart="165.00" departLane="s22B_0" departPos="5.10" departSpeed="0.00" departDelay="11.00" arrival="236.00" arrivalLane="B2n2_0" arrivalPos="189.60" arrivalSpeed="13.46" duration="71.00" routeLength="394.90" waitingTime="17.00" waitingCount="1" stopTime="0.00" timeLoss="41.90" rerouteNo="0" devices="tripinfo_car_63" vType="typeCar" speedFactor="0.99" vaporized=""/>
    <tripinfo id="car_67" depart="170.00" departLane="s22B_0" departPos="5.10" departSpeed="0.00" departDelay="7.00" arrival="236.00" arrivalLane="B2n2_1" arrivalPos="189.60" arrivalSpeed="12.64" duration="66.00" routeLength="394.90" waitingTime="13.00" waitingCount="1" stopTime="0.00" timeLoss="34.47" rerouteNo="0" devices="tripinfo_car_67" vType="typeCar" speedFactor="0.91" vaporized=""/>
    <tripinfo id="car_64" depart="168.00" departLane="n22B_0" departPos="5.10" departSpeed="0.00" departDelay="13.00" arrival="236.00" arrivalLane="B2s2_0" arrivalPos="189.60" arrivalSpeed="12.80" duration="68.00" routeLength="394.90" waitingTime="15.00" waitingCount="1" stopTime="0.00" timeLoss="36.89" rerouteNo="0" devices="tripinfo_car_64" vType="typeCar" speedFactor="0.94" vaporized=""/>
    <tripinfo id="car_65" depart="173.00" departLane="n22B_0" departPos="5.10" departSpeed="0.00" departDelay="12.00" arrival="237.00" arrivalLane="B2s2_1" arrivalPos="189.60" arrivalSpeed="12.24" duration="64.00" routeLength="394.90" waitingTime="10.00" waitingCount="1" stopTime="0.00" timeLoss="31.30" rerouteNo="0" devices="tripinfo_car_65" vType="typeCar" speedFactor="0.88" vaporized=""/>
    <tripinfo id="car_69" depart="178.00" departLane="n22B_0" departPos="5.10" departSpeed="0.00" departDelay="14.00" arrival="237.00" arrivalLane="B2s2_0" arrivalPos="189.60" arrivalSpeed="13.33" duration="59.00" routeLength="394.90" waitingTime="7.00" waitingCount="1" stopTime="0.00" timeLoss="31.04" rerouteNo="0" devices="tripinfo_car_69" vType="typeCar" speedFactor="1.02" vaporized=""/>
    <tripinfo id="car_73" depart="181.00" departLane="s22B_0" departPos="5.10" departSpeed="0.00" departDelay="8.00" arrival="238.00" arrivalLane="B2n2_1" arrivalPos="189.60" arrivalSpeed="14.47" duration="57.00" routeLength="394.90" waitingTime="2.00" waitingCount="1" stopTime="0.00" timeLoss="29.28" rerouteNo="0" devices="tripinfo_car_73" vType="typeCar" speedFactor="1.06" vaporized=""/>
    <tripinfo id="car_75" depart="183.00" departLane="n22B_0" departPos="5.10" departSpeed="0.00" departDelay="6.00" arrival="239.00" arrivalLane="B2s2_1" arrivalPos="189.60" arrivalSpeed="13.23" duration="56.00" routeLength="394.90" waitingTime="1.00" waitingCount="1" stopTime="0.00" timeLoss="26.29" rerouteNo="0" devices="tripinfo_car_75" vType="typeCar" speedFactor="0.98" vaporized=""/>