<?xml version="1.0" encoding="UTF-8"?>

<!-- generated on Tue Oct  9 11:08:32 2018 by Eclipse SUMO GUI Version 1.0.0
<configuration xmlns:xsi="http://www.w3.org/2001/XMLSchema-instance" xsi:noNamespaceSchemaLocation="http://sumo.dlr.de/xsd/sumoConfiguration.xsd">

    <input>
        <net-file value="data/cross.net.xml"/>
        <route-files value="data/cross.rou.xml"/>
        <additional-files value="data/cross.det.xml"/>
    </input>

    <output>
        <tripinfo-output value="tripinfo.xml"/>
    </output>

    <time>
        <begin value="0"/>
    </time>

    <report>
        <verbose value="true"/>
        <no-step-log value="true"/>
    </report>

    <traci_server>
        <remote-port value="59590"/>
    </traci_server>

    <gui_only>
        <gui-settings-file value="data/cross.settings.xml"/>
    </gui_only>

</configuration>
-->

<tripinfos xmlns:xsi="http://www.w3.org/2001/XMLSchema-instance" xsi:noNamespaceSchemaLocation="http://sumo.dlr.de/xsd/tripinfo_file.xsd">
    <tripinfo id="car_0" depart="0.00" departLane="n22B_0" departPos="5.10" departSpeed="0.00" departDelay="0.00" arrival="40.00" arrivalLane="B2s2_0" arrivalPos="189.60" arrivalSpeed="14.37" duration="40.00" routeLength="394.90" waitingTime="0.00" waitingCount="0" stopTime="0.00" timeLoss="12.99" rerouteNo="0" devices="tripinfo_car_0" vType="typeCar" speedFactor="1.06" vaporized=""/>
    <tripinfo id="car_3" depart="3.00" departLane="s12A_0" departPos="5.10" departSpeed="0.00" departDelay="0.00" arrival="41.00" arrivalLane="A2n1_0" arrivalPos="189.60" arrivalSpeed="14.86" duration="38.00" routeLength="394.90" waitingTime="0.00" waitingCount="0" stopTime="0.00" timeLoss="11.69" rerouteNo="0" devices="tripinfo_car_3" vType="typeCar" speedFactor="1.08" vaporized=""/>
    <tripinfo id="car_1" depart="2.00" departLane="s22B_0" departPos="5.10" departSpeed="0.00" departDelay="0.00" arrival="42.00" arrivalLane="B2n2_0" arrivalPos="189.60" arrivalSpeed="12.83" duration="40.00" routeLength="394.90" waitingTime="0.00" waitingCount="0" stopTime="0.00" timeLoss="9.46" rerouteNo="0" devices="tripinfo_car_1" vType="typeCar" speedFactor="0.94" vaporized=""/>
    <tripinfo id="car_2" depart="5.00" departLane="n22B_0" departPos="5.10" departSpeed="0.00" departDelay="2.00" arrival="46.00" arrivalLane="B2s2_0" arrivalPos="189.60" arrivalSpeed="13.85" duration="41.00" routeLength="394.90" waitingTime="1.00" waitingCount="1" stopTime="0.00" timeLoss="11.94" rerouteNo="0" devices="tripinfo_car_2" vType="typeCar" speedFactor="1.01" vaporized=""/>
    <tripinfo id="car_4" depart="7.00" departLane="s22B_0" departPos="5.10" departSpeed="0.00" departDelay="3.00" arrival="47.00" arrivalLane="B2n2_0" arrivalPos="189.60" arrivalSpeed="14.23" duration="40.00" routeLength="394.90" waitingTime="0.00" waitingCount="0" stopTime="0.00" timeLoss="11.42" rerouteNo="0" devices="tripinfo_car_4" vType="typeCar" speedFactor="1.03" vaporized=""/>
    <tripinfo id="car_9" depart="7.00" departLane="n12A_0" departPos="5.10" departSpeed="0.00" departDelay="0.00" arrival="51.00" arrivalLane="A2s1_0" arrivalPos="189.60" arrivalSpeed="11.54" duration="44.00" routeLength="394.90" waitingTime="0.00" waitingCount="0" stopTime="0.00" timeLoss="10.36" rerouteNo="0" devices="tripinfo_car_9" vType="typeCar" speedFactor="0.86" vaporized=""/>
    <tripinfo id="car_6" depart="12.00" departLane="s22B_0" departPos="5.10" departSpeed="0.00" departDelay="6.00" arrival="52.00" arrivalLane="B2n2_0" arrivalPos="189.60" arrivalSpeed="14.50" duration="40.00" routeLength="394.90" waitingTime="0.00" waitingCount="0" stopTime="0.00" timeLoss="12.03" rerouteNo="0" devices="tripinfo_car_6" vType="typeCar" speedFactor="1.05" vaporized=""/>
    <tripinfo id="car_5" depart="11.00" departLane="n22B_0" departPos="5.10" departSpeed="0.00" departDelay="5.00" arrival="54.00" arrivalLane="B2s2_0" arrivalPos="189.60" arrivalSpeed="11.21" duration="43.00" routeLength="394.90" waitingTime="0.00" waitingCount="0" stopTime="0.00" timeLoss="8.77" rerouteNo="0" devices="tripinfo_car_5" vType="typeCar" speedFactor="0.83" vaporized=""/>
    <tripinfo id="car_8" depart="16.00" departLane="n22B_0" departPos="5.10" departSpeed="0.00" departDelay="9.00" arrival="58.00" arrivalLane="B2s2_0" arrivalPos="189.60" arrivalSpeed="12.71" duration="42.00" routeLength="394.90" waitingTime="0.00" waitingCount="0" stopTime="0.00" timeLoss="11.57" rerouteNo="0" devices="tripinfo_car_8" vType="typeCar" speedFactor="0.94" vaporized=""/>
    <tripinfo id="car_16" depart="23.00" departLane="w2A_0" departPos="5.10" departSpeed="0.00" departDelay="0.00" arrival="82.00" arrivalLane="B2e_0" arrivalPos="189.60" arrivalSpeed="12.12" duration="59.00" routeLength="594.90" waitingTime="0.00" waitingCount="0" stopTime="0.00" timeLoss="9.95" rerouteNo="0" devices="tripinfo_car_16" vType="typeCar" speedFactor="0.88" vaporized=""/>
    <tripinfo id="car_7" depart="6.00" departLane="w2A_0" departPos="5.10" departSpeed="0.00" departDelay="0.00" arrival="88.00" arrivalLane="B2e_0" arrivalPos="189.60" arrivalSpeed="12.06" duration="82.00" routeLength="594.90" waitingTime="11.00" waitingCount="1" stopTime="0.00" timeLoss="33.13" rerouteNo="0" devices="tripinfo_car_7" vType="typeCar" speedFactor="0.89" vaporized=""/>
    <tripinfo id="car_28" depart="73.00" departLane="s12A_0" departPos="5.10" departSpeed="0.00" departDelay="0.00" arrival="110.00" arrivalLane="A2n1_0" arrivalPos="189.60" arrivalSpeed="15.38" duration="37.00" routeLength="394.90" waitingTime="0.00" waitingCount="0" stopTime="0.00" timeLoss="11.75" rerouteNo="0" devices="tripinfo_car_28" vType="typeCar" speedFactor="1.13" vaporized=""/>
    <tripinfo id="car_12" depart="22.00" departLane="s22B_0" departPos="5.10" departSpeed="0.00" departDelay="3.00" arrival="115.00" arrivalLane="B2n2_1" arrivalPos="189.60" arrivalSpeed="14.23" duration="93.00" routeLength="394.90" waitingTime="41.00" waitingCount="1" stopTime="0.00" timeLoss="65.15" rerouteNo="0" devices="tripinfo_car_12" vType="typeCar" speedFactor="1.05" vaporized=""/>
    <tripinfo id="car_10" depart="17.00" departLane="s22B_0" departPos="5.10" departSpeed="0.00" departDelay="9.00" arrival="115.00" arrivalLane="B2n2_0" arrivalPos="189.60" arrivalSpeed="14.89" duration="98.00" routeLength="394.90" waitingTime="44.00" waitingCount="1" stopTime="0.00" timeLoss="71.72" rerouteNo="0" devices="tripinfo_car_10" vType="typeCar" speedFactor="1.09" vaporized=""/>
    <tripinfo id="car_11" depart="21.00" departLane="n22B_0" departPos="5.10" departSpeed="0.00" departDelay="10.00" arrival="116.00" arrivalLane="B2s2_0" arrivalPos="189.60" arrivalSpeed="14.19" duration="95.00" routeLength="394.90" waitingTime="41.00" waitingCount="1" stopTime="0.00" timeLoss="66.81" rerouteNo="0" devices="tripinfo_car_11" vType="typeCar" speedFactor="1.03" vaporized=""/>
    <tripinfo id="car_22" depart="61.00" departLane="n12A_0" departPos="5.10" departSpeed="0.00" departDelay="0.00" arrival="116.00" arrivalLane="A2s1_0" arrivalPos="189.60" arrivalSpeed="13.26" duration="55.00" routeLength="394.90" waitingTime="1.00" waitingCount="1" stopTime="0.00" timeLoss="24.95" rerouteNo="0" devices="tripinfo_car_22" vType="typeCar" speedFactor="0.98" vaporized=""/>
    <tripinfo id="car_17" depart="39.00" departLane="n22B_0" departPos="5.10" departSpeed="0.00" departDelay="0.00" arrival="117.00" arrivalLane="B2s2_1" arrivalPos="189.60" arrivalSpeed="12.95" duration="78.00" routeLength="394.90" waitingTime="23.00" waitingCount="1" stopTime="0.00" timeLoss="47.20" rerouteNo="0" devices="tripinfo_car_17" vType="typeCar" speedFactor="0.94" vaporized=""/>
    <tripinfo id="car_21" depart="61.00" departLane="n22B_0" departPos="5.10" departSpeed="0.00" departDelay="0.00" arrival="118.00" arrivalLane="B2s2_0" arrivalPos="189.60" arrivalSpeed="13.77" duration="57.00" routeLength="394.90" waitingTime="5.00" waitingCount="1" stopTime="0.00" timeLoss="28.32" rerouteNo="0" devices="tripinfo_car_21" vType="typeCar" speedFactor="1.01" vaporized=""/>
    <tripinfo id="car_14" depart="33.00" departLane="s22B_0" departPos="5.10" departSpeed="0.00" departDelay="11.00" arrival="118.00" arrivalLane="B2n2_1" arrivalPos="189.60" arrivalSpeed="13.58" duration="85.00" routeLength="394.90" waitingTime="30.00" waitingCount="1" stopTime="0.00" timeLoss="55.34" rerouteNo="0" devices="tripinfo_car_14" vType="typeCar" speedFactor="0.99" vaporized=""/>
    <tripinfo id="car_13" depart="28.00" departLane="s22B_0" departPos="5.10" departSpeed="0.00" departDelay="7.00" arrival="118.00" arrivalLane="B2n2_0" arrivalPos="189.60" arrivalSpeed="15.42" duration="90.00" routeLength="394.90" waitingTime="37.00" waitingCount="1" stopTime="0.00" timeLoss="63.84" rerouteNo="0" devices="tripinfo_car_13" vType="typeCar" speedFactor="1.12" vaporized=""/>
    <tripinfo id="car_27" depart="73.00" departLane="n22B_0" departPos="5.10" departSpeed="0.00" departDelay="0.00" arrival="119.00" arrivalLane="B2s2_1" arrivalPos="189.60" arrivalSpeed="13.17" duration="46.00" routeLength="394.90" waitingTime="0.00" waitingCount="0" stopTime="0.00" timeLoss="15.06" rerouteNo="0" devices="tripinfo_car_27" vType="typeCar" speedFactor="0.95" vaporized=""/>
    <tripinfo id="car_30" depart="78.00" departLane="n22B_0" departPos="5.10" departSpeed="0.00" departDelay="3.00" arrival="119.00" arrivalLane="B2s2_0" arrivalPos="189.60" arrivalSpeed="14.63" duration="41.00" routeLength="394.90" waitingTime="0.00" waitingCount="0" stopTime="0.00" timeLoss="16.88" rerouteNo="0" devices="tripinfo_car_30" vType="typeCar" speedFactor="1.18" vaporized=""/>
    <tripinfo id="car_18" depart="48.00" departLane="s22B_0" departPos="5.10" departSpeed="0.00" departDelay="0.00" arrival="120.00" arrivalLane="B2n2_1" arrivalPos="189.60" arrivalSpeed="12.63" duration="72.00" routeLength="394.90" waitingTime="17.00" waitingCount="1" stopTime="0.00" timeLoss="41.14" rerouteNo="0" devices="tripinfo_car_18" vType="typeCar" speedFactor="0.94" vaporized=""/>
    <tripinfo id="car_15" depart="38.00" departLane="s22B_0" departPos="5.10" departSpeed="0.00" departDelay="15.00" arrival="120.00" arrivalLane="B2n2_0" arrivalPos="189.60" arrivalSpeed="12.65" duration="82.00" routeLength="394.90" waitingTime="28.00" waitingCount="1" stopTime="0.00" timeLoss="51.26" rerouteNo="0" devices="tripinfo_car_15" vType="typeCar" speedFactor="0.93" vaporized=""/>
    <tripinfo id="car_20" depart="59.00" departLane="s22B_0" departPos="5.10" departSpeed="0.00" departDelay="0.00" arrival="122.00" arrivalLane="B2n2_1" arrivalPos="189.60" arrivalSpeed="13.77" duration="63.00" routeLength="394.90" waitingTime="8.00" waitingCount="1" stopTime="0.00" timeLoss="34.18" rerouteNo="0" devices="tripinfo_car_20" vType="typeCar" speedFactor="1.02" vaporized=""/>
    <tripinfo id="car_19" depart="53.00" departLane="s22B_0" departPos="5.10" departSpeed="0.00" departDelay="3.00" arrival="122.00" arrivalLane="B2n2_0" arrivalPos="189.60" arrivalSpeed="13.57" duration="69.00" routeLength="394.90" waitingTime="14.00" waitingCount="1" stopTime="0.00" timeLoss="44.03" rerouteNo="0" devices="tripinfo_car_19" vType="typeCar" speedFactor="1.16" vaporized=""/>
    <tripinfo id="car_32" depart="84.00" departLane="n22B_0" departPos="5.10" departSpeed="0.00" departDelay="8.00" arrival="124.00" arrivalLane="B2s2_0" arrivalPos="189.60" arrivalSpeed="13.74" duration="40.00" routeLength="394.90" waitingTime="0.00" waitingCount="0" stopTime="0.00" timeLoss="11.15" rerouteNo="0" devices="tripinfo_car_32" vType="typeCar" speedFactor="1.01" vaporized=""/>
    <tripinfo id="car_24" depart="70.00" departLane="s22B_0" departPos="5.10" departSpeed="0.00" departDelay="0.00" arrival="125.00" arrivalLane="B2n2_1" arrivalPos="189.60" arrivalSpeed="11.42" duration="55.00" routeLength="394.90" waitingTime="0.00" waitingCount="0" stopTime="0.00" timeLoss="19.83" rerouteNo="0" devices="tripinfo_car_24" vType="typeCar" speedFactor="0.83" vaporized=""/>
    <tripinfo id="car_23" depart="64.00" departLane="s22B_0" departPos="5.10" departSpeed="0.00" departDelay="1.00" arrival="125.00" arrivalLane="B2n2_0" arrivalPos="189.60" arrivalSpeed="12.33" duration="61.00" routeLength="394.90" waitingTime="5.00" waitingCount="1" stopTime="0.00" timeLoss="28.07" rerouteNo="0" devices="tripinfo_car_23" vType="typeCar" speedFactor="0.89" vaporized=""/>
    <tripinfo id="car_29" depart="80.00" departLane="s22B_0" departPos="5.10" departSpeed="0.00" departDelay="6.00" arrival="126.00" arrivalLane="B2n2_1" arrivalPos="189.60" arrivalSpeed="11.69" duration="46.00" routeLength="394.90" waitingTime="0.00" waitingCount="0" stopTime="0.00" timeLoss="15.43" rerouteNo="0" devices="tripinfo_car_29" vType="typeCar" speedFactor="0.93" vaporized=""/>
    <tripinfo id="car_25" depart="75.00" departLane="s22B_0" departPos="5.10" departSpeed="0.00" departDelay="4.00" arrival="126.00" arrivalLane="B2n2_0" arrivalPos="189.60" arrivalSpeed="11.94" duration="51.00" routeLength="394.90" waitingTime="0.00" waitingCount="0" stopTime="0.00" timeLoss="18.41" rerouteNo="0" devices="tripinfo_car_25" vType="typeCar" speedFactor="0.87" vaporized=""/>
    <tripinfo id="car_33" depart="89.00" departLane="n22B_0" departPos="5.10" departSpeed="0.00" departDelay="5.00" arrival="127.00" arrivalLane="B2s2_0" arrivalPos="189.60" arrivalSpeed="15.94" duration="38.00" routeLength="394.90" waitingTime="0.00" waitingCount="0" stopTime="0.00" timeLoss="13.19" rerouteNo="0" devices="tripinfo_car_33" vType="typeCar" speedFactor="1.17" vaporized=""/>
    <tripinfo id="car_31" depart="85.00" departLane="s22B_0" departPos="5.10" departSpeed="0.00" departDelay="10.00" arrival="128.00" arrivalLane="B2n2_0" arrivalPos="189.60" arrivalSpeed="13.30" duration="43.00" routeLength="394.90" waitingTime="0.00" waitingCount="0" stopTime="0.00" timeLoss="17.98" rerouteNo="0" devices="tripinfo_car_31" vType="typeCar" speedFactor="1.15" vaporized=""/>
    <tripinfo id="car_34" depart="90.00" departLane="s22B_0" departPos="5.10" departSpeed="0.00" departDelay="3.00" arrival="131.00" arrivalLane="B2n2_0" arrivalPos="189.60" arrivalSpeed="13.46" duration="41.00" routeLength="394.90" waitingTime="1.00" waitingCount="1" stopTime="0.00" timeLoss="11.74" rerouteNo="0" devices="tripinfo_car_34" vType="typeCar" speedFactor="0.99" vaporized=""/>
    <tripinfo id="car_37" depart="97.00" departLane="n22B_0" departPos="5.10" departSpeed="0.00" departDelay="0.00" arrival="135.00" arrivalLane="B2s2_0" arrivalPos="189.60" arrivalSpeed="16.32" duration="38.00" routeLength="394.90" waitingTime="0.00" waitingCount="0" stopTime="0.00" timeLoss="13.55" rerouteNo="0" devices="tripinfo_car_37" vType="typeCar" speedFactor="1.18" vaporized=""/>
    <tripinfo id="car_35" depart="96.00" departLane="s22B_0" departPos="5.10" departSpeed="0.00" departDelay="7.00" arrival="135.00" arrivalLane="B2n2_0" arrivalPos="189.60" arrivalSpeed="14.08" duration="39.00" routeLength="394.90" waitingTime="0.00" waitingCount="0" stopTime="0.00" timeLoss="10.50" rerouteNo="0" devices="tripinfo_car_35" vType="typeCar" speedFactor="1.02" vaporized=""/>
    <tripinfo id="car_39" depart="100.00" departLane="n12A_0" departPos="5.10" departSpeed="0.00" departDelay="0.00" arrival="142.00" arrivalLane="A2s1_0" arrivalPos="189.60" arrivalSpeed="12.35" duration="42.00" routeLength="394.90" waitingTime="0.00" waitingCount="0" stopTime="0.00" timeLoss="10.18" rerouteNo="0" devices="tripinfo_car_39" vType="typeCar" speedFactor="0.90" vaporized=""/>
    <tripinfo id="car_38" depart="102.00" departLane="n22B_0" departPos="5.10" departSpeed="0.00" departDelay="2.00" arrival="142.00" arrivalLane="B2s2_0" arrivalPos="189.60" arrivalSpeed="15.25" duration="40.00" routeLength="394.90" waitingTime="0.00" waitingCount="0" stopTime="0.00" timeLoss="13.37" rerouteNo="0" devices="tripinfo_car_38" vType="typeCar" speedFactor="1.10" vaporized=""/>
    <tripinfo id="car_36" depart="101.00" departLane="s22B_0" departPos="5.10" departSpeed="0.00" departDelay="6.00" arrival="142.00" arrivalLane="B2n2_0" arrivalPos="189.60" arrivalSpeed="13.45" duration="41.00" routeLength="394.90" waitingTime="0.00" waitingCount="0" stopTime="0.00" timeLoss="10.96" rerouteNo="0" devices="tripinfo_car_36" vType="typeCar" speedFactor="0.97" vaporized=""/>
    <tripinfo id="car_40" depart="106.00" departLane="s22B_0" departPos="5.10" departSpeed="0.00" departDelay="6.00" arrival="146.00" arrivalLane="B2n2_0" arrivalPos="189.60" arrivalSpeed="14.08" duration="40.00" routeLength="394.90" waitingTime="0.00" waitingCount="0" stopTime="0.00" timeLoss="11.56" rerouteNo="0" devices="tripinfo_car_40" vType="typeCar" speedFactor="1.03" vaporized=""/>
    <tripinfo id="car_43" depart="105.00" departLane="w2A_0" departPos="5.10" departSpeed="0.00" departDelay="0.00" arrival="175.00" arrivalLane="B2e_0" arrivalPos="189.60" arrivalSpeed="14.27" duration="70.00" routeLength="594.90" waitingTime="3.00" waitingCount="1" stopTime="0.00" timeLoss="28.11" rerouteNo="0" devices="tripinfo_car_43" vType="typeCar" speedFactor="1.04" vaporized=""/>
    <tripinfo id="car_48" depart="115.00" departLane="e2B_0" departPos="5.10" departSpeed="0.00" departDelay="0.00" arrival="175.00" arrivalLane="A2w_0" arrivalPos="189.60" arrivalSpeed="12.14" duration="60.00" routeLength="594.90" waitingTime="0.00" waitingCount="0" stopTime="0.00" timeLoss="10.40" rerouteNo="0" devices="tripinfo_car_48" vType="typeCar" speedFactor="0.88" vaporized=""/>
    <tripinfo id="car_44" depart="105.00" departLane="e2B_0" departPos="5.10" departSpeed="0.00" departDelay="0.00" arrival="176.00" arrivalLane="A2w_0" arrivalPos="189.60" arrivalSpeed="12.30" duration="71.00" routeLength="594.90" waitingTime="4.00" waitingCount="1" stopTime="0.00" timeLoss="29.86" rerouteNo="0" devices="tripinfo_car_44" vType="typeCar" speedFactor="1.04" vaporized=""/>
    <tripinfo id="car_26" depart="71.00" departLane="w2A_0" departPos="5.10" departSpeed="0.00" departDelay="0.00" arrival="177.00" arrivalLane="B2e_0" arrivalPos="189.60" arrivalSpeed="12.63" duration="106.00" routeLength="594.90" waitingTime="37.00" waitingCount="1" stopTime="0.00" timeLoss="59.18" rerouteNo="0" devices="tripinfo_car_26" vType="typeCar" speedFactor="0.92" vaporized=""/>
    <tripinfo id="car_42" depart="116.00" departLane="s22B_0" departPos="5.10" departSpeed="0.00" departDelay="11.00" arrival="205.00" arrivalLane="B2n2_0" arrivalPos="189.60" arrivalSpeed="15.14" duration="89.00" routeLength="394.90" waitingTime="37.00" waitingCount="1" stopTime="0.00" timeLoss="62.76" rerouteNo="0" devices="tripinfo_car_42" vType="typeCar" speedFactor="1.09" vaporized=""/>
    <tripinfo id="car_60" depart="149.00" departLane="s12A_0" departPos="5.10" departSpeed="0.00" departDelay="0.00" arrival="205.00" arrivalLane="A2n1_1" arrivalPos="189.60" arrivalSpeed="14.88" duration="56.00" routeLength="394.90" waitingTime="4.00" waitingCount="1" stopTime="0.00" timeLoss="29.32" rerouteNo="0" devices="tripinfo_car_60" vType="typeCar" speedFactor="1.08" vaporized=""/>
    <tripinfo id="car_45" depart="109.00" departLane="n22B_0" departPos="5.10" departSpeed="0.00" departDelay="0.00" arrival="205.00" arrivalLane="B2s2_0" arrivalPos="189.60" arrivalSpeed="14.72" duration="96.00" routeLength="394.90" waitingTime="43.00" waitingCount="1" stopTime="0.00" timeLoss="69.83" rerouteNo="0" devices="tripinfo_car_45" vType="typeCar" speedFactor="1.09" vaporized=""/>
    <tripinfo id="car_54" depart="130.00" departLane="s12A_0" departPos="5.10" departSpeed="0.00" departDelay="0.00" arrival="206.00" arrivalLane="A2n1_0" arrivalPos="189.60" arrivalSpeed="13.63" duration="76.00" routeLength="394.90" waitingTime="22.00" waitingCount="1" stopTime="0.00" timeLoss="46.77" rerouteNo="0" devices="tripinfo_car_54" vType="typeCar" speedFactor="1.00" vaporized=""/>
    <tripinfo id="car_49" depart="120.00" departLane="n22B_0" departPos="5.10" departSpeed="0.00" departDelay="0.00" arrival="206.00" arrivalLane="B2s2_1" arrivalPos="189.60" arrivalSpeed="11.45" duration="86.00" routeLength="394.90" waitingTime="32.00" waitingCount="1" stopTime="0.00" timeLoss="52.44" rerouteNo="0" devices="tripinfo_car_49" vType="typeCar" speedFactor="0.85" vaporized=""/>
    <tripinfo id="car_41" depart="111.00" departLane="s22B_0" departPos="5.10" departSpeed="0.00" departDelay="10.00" arrival="207.00" arrivalLane="B2n2_0" arrivalPos="189.60" arrivalSpeed="13.28" duration="96.00" routeLength="394.90" waitingTime="41.00" waitingCount="1" stopTime="0.00" timeLoss="65.43" rerouteNo="0" devices="tripinfo_car_41" vType="typeCar" speedFactor="0.96" vaporized=""/>
    <tripinfo id="car_46" depart="122.00" departLane="s22B_0" departPos="5.10" departSpeed="0.00" departDelay="11.00" arrival="208.00" arrivalLane="B2n2_0" arrivalPos="189.60" arrivalSpeed="13.52" duration="86.00" routeLength="394.90" waitingTime="31.00" waitingCount="1" stopTime="0.00" timeLoss="57.22" rerouteNo="0" devices="tripinfo_car_46" vType="typeCar" speedFactor="1.00" vaporized=""/>
    <tripinfo id="car_53" depart="134.00" departLane="n22B_0" departPos="5.10" departSpeed="0.00" departDelay="4.00" arrival="208.00" arrivalLane="B2s2_1" arrivalPos="189.60" arrivalSpeed="14.12" duration="74.00" routeLength="394.90" waitingTime="20.00" waitingCount="1" stopTime="0.00" timeLoss="47.59" rerouteNo="0" devices="tripinfo_car_53" vType="typeCar" speedFactor="1.10" vaporized=""/>
    <tripinfo id="car_47" depart="127.00" departLane="s22B_0" departPos="5.10" departSpeed="0.00" departDelay="12.00" arrival="208.00" arrivalLane="B2n2_1" arrivalPos="189.60" arrivalSpeed="12.30" duration="81.00" routeLength="394.90" waitingTime="27.00" waitingCount="1" stopTime="0.00" timeLoss="49.32" rerouteNo="0" devices="tripinfo_car_47" vType="typeCar" speedFactor="0.90" vaporized=""/>
    <tripinfo id="car_52" depart="129.00" departLane="n22B_0" departPos="5.10" departSpeed="0.00" departDelay="0.00" arrival="208.00" arrivalLane="B2s2_0" arrivalPos="189.60" arrivalSpeed="13.83" duration="79.00" routeLength="394.90" waitingTime="25.00" waitingCount="1" stopTime="0.00" timeLoss="50.13" rerouteNo="0" devices="tripinfo_car_52" vType="typeCar" speedFactor="1.02" vaporized=""/>
    <tripinfo id="car_62" depart="155.00" departLane="n22B_0" departPos="5.10" departSpeed="0.00" departDelay="0.00" arrival="210.00" arrivalLane="B2s2_1" arrivalPos="189.60" arrivalSpeed="13.90" duration="55.00" routeLength="394.90" waitingTime="0.00" waitingCount="0" stopTime="0.00" timeLoss="26.17" rerouteNo="0" devices="tripinfo_car_62" vType="typeCar" speedFactor="1.02" vaporized=""/>
    <tripinfo id="car_51" depart="137.00" departLane="s22B_0" departPos="5.10" departSpeed="0.00" departDelay="11.00" arrival="210.00" arrivalLane="B2n2_1" arrivalPos="189.60" arrivalSpeed="13.23" duration="73.00" routeLength="394.90" waitingTime="19.00" waitingCount="1" stopTime="0.00" timeLoss="48.28" rerouteNo="0" devices="tripinfo_car_51" vType="typeCar" speedFactor="1.17" vaporized=""/>
    <tripinfo id="car_59" depart="149.00" departLane="n22B_0" departPos="5.10" departSpeed="0.00" departDelay="0.00" arrival="210.00" arrivalLane="B2s2_0" arrivalPos="189.60" arrivalSpeed="13.13" duration="61.00" routeLength="394.90" waitingTime="7.00" waitingCount="1" stopTime="0.00" timeLoss="31.10" rerouteNo="0" devices="tripinfo_car_59" vType="typeCar" speedFactor="0.97" vaporized=""/>
    <tripinfo id="car_50" depart="132.00" departLane="s22B_0" departPos="5.10" departSpeed="0.00" departDelay="9.00" arrival="212.00" arrivalLane="B2n2_0" arrivalPos="189.60" arrivalSpeed="11.49" duration="80.00" routeLength="394.90" waitingTime="23.00" waitingCount="1" stopTime="0.00" timeLoss="46.51" rerouteNo="0" devices="tripinfo_car_50" vType="typeCar" speedFactor="0.85" vaporized=""/>
    <tripinfo id="car_56" depart="147.00" departLane="s22B_0" departPos="5.10" departSpeed="0.00" departDelay="2.00" arrival="213.00" arrivalLane="B2n2_1" arrivalPos="189.60" arrivalSpeed="12.09" duration="66.00" routeLength="394.90" waitingTime="10.00" waitingCount="1" stopTime="0.00" timeLoss="33.43" rerouteNo="0" devices="tripinfo_car_56" vType="typeCar" speedFactor="0.90" vaporized=""/>
    <tripinfo id="car_55" depart="142.00" departLane="s22B_0" departPos="5.10" departSpeed="0.00" departDelay="11.00" arrival="214.00" arrivalLane="B2n2_0" arrivalPos="189.60" arrivalSpeed="12.49" duration="72.00" routeLength="394.90" waitingTime="15.00" waitingCount="1" stopTime="0.00" timeLoss="42.90" rerouteNo="0" devices="tripinfo_car_55" vType="typeCar" speedFactor="1.00" vaporized=""/>
    <tripinfo id="car_58" depart="157.00" departLane="s22B_0" departPos="5.10" departSpeed="0.00" departDelay="10.00" arrival="214.00" arrivalLane="B2n2_1" arrivalPos="189.60" arrivalSpeed="13.23" duration="57.00" routeLength="394.90" waitingTime="2.00" waitingCount="1" stopTime="0.00" timeLoss="28.91" rerouteNo="0" devices="tripinfo_car_58" vType="typeCar" speedFactor="1.02" vaporized=""/>
    <tripinfo id="car_57" depart="152.00" departLane="s22B_0" departPos="5.10" departSpeed="0.00" departDelay="6.00" arrival="215.00" arrivalLane="B2n2_0" arrivalPos="189.60" arrivalSpeed="13.08" duration="63.00" routeLength="394.90" waitingTime="7.00" waitingCount="1" stopTime="0.00" timeLoss="38.12" rerouteNo="0" devices="tripinfo_car_57" vType="typeCar" speedFactor="1.14" vaporized=""/>
    <tripinfo id="car_63" depart="167.00" departLane="s22B_0" departPos="5.10" departSpeed="0.00" departDelay="7.00" arrival="216.00" arrivalLane="B2n2_1" arrivalPos="189.60" arrivalSpeed="13.33" duration="49.00" routeLength="394.90" waitingTime="0.00" waitingCount="0" stopTime="0.00" timeLoss="19.68" rerouteNo="0" devices="tripinfo_car_63" vType="typeCar" speedFactor="0.99" vaporized=""/>
    <tripinfo id="car_68" depart="178.00" departLane="n12A_0" departPos="5.10" departSpeed="0.00" departDelay="0.00" arrival="217.00" arrivalLane="A2s1_0" arrivalPos="189.60" arrivalSpeed="14.29" duration="39.00" routeLength="394.90" waitingTime="0.00" waitingCount="0" stopTime="0.00" timeLoss="11.63" rerouteNo="0" devices="tripinfo_car_68" vType="typeCar" speedFactor="1.04" vaporized=""/>
    <tripinfo id="car_61" depart="162.00" departLane="s22B_0" departPos="5.10" departSpeed="0.00" departDelay="11.00" arrival="217.00" arrivalLane="B2n2_0" arrivalPos="189.60" arrivalSpeed="13.29" duration="55.00" routeLength="394.90" waitingTime="0.00" waitingCount="0" stopTime="0.00" timeLoss="29.31" rerouteNo="0" devices="tripinfo_car_61" vType="typeCar" speedFactor="1.12" vaporized=""/>
    <tripinfo id="car_65" depart="177.00" departLane="s22B_0" departPos="5.10" departSpeed="0.00" departDelay="0.00" arrival="220.00" arrivalLane="B2n2_0" arrivalPos="189.60" arrivalSpeed="11.92" duration="43.00" routeLength="394.90" waitingTime="0.00" waitingCount="0" stopTime="0.00" timeLoss="10.12" rerouteNo="0" devices="tripinfo_car_65" vType="typeCar" speedFactor="0.88" vaporized=""/>
    <tripinfo id="car_67" depart="178.00" departLane="n22B_0" departPos="5.10" departSpeed="0.00" departDelay="0.00" arrival="221.00" arrivalLane="B2s2_0" arrivalPos="189.60" arrivalSpeed="12.68" duration="43.00" routeLength="394.90" waitingTime="0.00" waitingCount="0" stopTime="0.00" timeLoss="10.97" rerouteNo="0" devices="tripinfo_car_67" vType="typeCar" speedFactor="0.91" vaporized=""/>
    <tripinfo id="car_70" depart="183.00" departLane="s12A_0" departPos="5.10" departSpeed="0.00" departDelay="0.00" arrival="222.00" arrivalLane="A2n1_0" arrivalPos="189.60" arrivalSpeed="14.11" duration="39.00" routeLength="394.90" waitingTime="0.00" waitingCount="0" stopTime="0.00" timeLoss="10.97" rerouteNo="0" devices="tripinfo_car_70" vType="typeCar" speedFactor="1.02" vaporized=""/>
    <tripinfo id="car_69" depart="183.00" departLane="n22B_0" departPos="5.10" departSpeed="0.00" departDelay="0.00" arrival="224.00" arrivalLane="B2s2_0" arrivalPos="189.60" arrivalSpeed="14.04" duration="41.00" routeLength="394.90" waitingTime="0.00" waitingCount="0" stopTime="0.00" timeLoss="12.38" rerouteNo="0" devices="tripinfo_car_69" vType="typeCar" speedFactor="1.02" vaporized=""/>
    <tripinfo id="car_71" depart="193.00" departLane="s22B_0" departPos="5.10" departSpeed="0.00" departDelay="0.00" arrival="233.00" arrivalLane="B2n2_0" arrivalPos="189.60" arrivalSpeed="13.42" duration="40.00" routeLength="394.90" waitingTime="0.00" waitingCount="0" stopTime="0.00" timeLoss="10.57" rerouteNo="0" devices="tripinfo_car_71" vType="typeCar" speedFactor="0.97" vaporized=""/>
    <tripinfo id="car_75" depart="198.00" departLane="w2A_0" departPos="5.10" departSpeed="0.00" departDelay="0.00" arrival="260.00" arrivalLane="B2e_0" arrivalPos="189.60" arrivalSpeed="13.49" duration="62.00" routeLength="594.90" waitingTime="0.00" waitingCount="0" stopTime="0.00" timeLoss="17.93" rerouteNo="0" devices="tripinfo_car_75" vType="typeCar" speedFactor="0.98" vaporized=""/>
    <tripinfo id="car_64" depart="160.00" departLane="e2B_0" departPos="5.10" departSpeed="0.00" departDelay="0.00" arrival="267.00" arrivalLane="A2w_0" arrivalPos="189.60" arrivalSpeed="12.85" duration="107.00" routeLength="594.90" waitingTime="37.00" waitingCount="1" stopTime="0.00" timeLoss="60.39" rerouteNo="0" devices="tripinfo_car_64" vType="typeCar" speedFactor="0.94" vaporized=""/>
    <tripinfo id="car_66" depart="177.00" departLane="e2B_0" departPos="5.10" departSpeed="0.00" departDelay="0.00" arrival="267.00" arrivalLane="A2w_1" arrivalPos="189.60" arrivalSpeed="12.51" duration="90.00" routeLength="594.90" waitingTime="19.00" waitingCount="1" stopTime="0.00" timeLoss="42.28" rerouteNo="0" devices="tripinfo_car_66" vType="typeCar" speedFactor="0.91" vaporized=""/>