<?xml version="1.0" encoding="UTF-8"?>

<!-- generated on Wed Oct 10 15:44:45 2018 by Eclipse SUMO Version 1.0.0
<configuration xmlns:xsi="http://www.w3.org/2001/XMLSchema-instance" xsi:noNamespaceSchemaLocation="http://sumo.dlr.de/xsd/sumoConfiguration.xsd">

    <input>
        <net-file value="data/cross.net.xml"/>
        <route-files value="data/cross.rou.xml"/>
        <additional-files value="data/cross.det.xml"/>
    </input>

    <output>
        <tripinfo-output value="tripinfo.xml"/>
    </output>

    <time>
        <begin value="0"/>
    </time>

    <report>
        <verbose value="true"/>
        <no-step-log value="true"/>
    </report>

    <traci_server>
        <remote-port value="63343"/>
    </traci_server>

    <gui_only>
        <gui-settings-file value="data/cross.settings.xml"/>
    </gui_only>

</configuration>
-->

<tripinfos xmlns:xsi="http://www.w3.org/2001/XMLSchema-instance" xsi:noNamespaceSchemaLocation="http://sumo.dlr.de/xsd/tripinfo_file.xsd">
    <tripinfo id="car_1" depart="4.00" departLane="s2A_0" departPos="5.10" departSpeed="0.00" departDelay="0.00" arrival="45.00" arrivalLane="A2n_0" arrivalPos="189.60" arrivalSpeed="12.82" duration="41.00" routeLength="394.90" waitingTime="0.00" waitingCount="0" stopTime="0.00" timeLoss="9.79" rerouteNo="0" devices="tripinfo_car_1" vType="typeCar" speedFactor="0.94" vaporized=""/>
    <tripinfo id="car_4" depart="12.00" departLane="w2A_0" departPos="5.10" departSpeed="0.00" departDelay="0.00" arrival="71.00" arrivalLane="A2e_1" arrivalPos="189.60" arrivalSpeed="14.04" duration="59.00" routeLength="394.90" waitingTime="4.00" waitingCount="1" stopTime="0.00" timeLoss="31.22" rerouteNo="0" devices="tripinfo_car_4" vType="typeCar" speedFactor="1.03" vaporized=""/>
    <tripinfo id="car_3" depart="11.00" departLane="e2A_0" departPos="5.10" departSpeed="0.00" departDelay="0.00" arrival="71.00" arrivalLane="A2w_1" arrivalPos="189.60" arrivalSpeed="14.74" duration="60.00" routeLength="394.90" waitingTime="6.00" waitingCount="1" stopTime="0.00" timeLoss="33.44" rerouteNo="0" devices="tripinfo_car_3" vType="typeCar" speedFactor="1.08" vaporized=""/>
    <tripinfo id="car_2" depart="6.00" departLane="w2A_0" departPos="5.10" departSpeed="0.00" departDelay="0.00" arrival="71.00" arrivalLane="A2e_0" arrivalPos="189.60" arrivalSpeed="13.65" duration="65.00" routeLength="394.90" waitingTime="12.00" waitingCount="1" stopTime="0.00" timeLoss="36.75" rerouteNo="0" devices="tripinfo_car_2" vType="typeCar" speedFactor="1.01" vaporized=""/>
    <tripinfo id="car_0" depart="2.00" departLane="e2A_0" departPos="5.10" departSpeed="0.00" departDelay="0.00" arrival="71.00" arrivalLane="A2w_0" arrivalPos="189.60" arrivalSpeed="14.35" duration="69.00" routeLength="394.90" waitingTime="15.00" waitingCount="1" stopTime="0.00" timeLoss="41.46" rerouteNo="0" devices="tripinfo_car_0" vType="typeCar" speedFactor="1.06" vaporized=""/>
    <tripinfo id="car_10" depart="26.00" departLane="w2A_0" departPos="5.10" departSpeed="0.00" departDelay="0.00" arrival="73.00" arrivalLane="A2e_1" arrivalPos="189.60" arrivalSpeed="14.99" duration="47.00" routeLength="394.90" waitingTime="0.00" waitingCount="0" stopTime="0.00" timeLoss="20.32" rerouteNo="0" devices="tripinfo_car_10" vType="typeCar" speedFactor="1.09" vaporized=""/>
    <tripinfo id="car_6" depart="16.00" departLane="e2A_0" departPos="5.10" departSpeed="0.00" departDelay="1.00" arrival="73.00" arrivalLane="A2w_0" arrivalPos="189.60" arrivalSpeed="14.19" duration="57.00" routeLength="394.90" waitingTime="3.00" waitingCount="1" stopTime="0.00" timeLoss="29.00" rerouteNo="0" devices="tripinfo_car_6" vType="typeCar" speedFactor="1.05" vaporized=""/>
    <tripinfo id="car_8" depart="21.00" departLane="e2A_0" departPos="5.10" departSpeed="0.00" departDelay="1.00" arrival="74.00" arrivalLane="A2w_1" arrivalPos="189.60" arrivalSpeed="12.87" duration="53.00" routeLength="394.90" waitingTime="0.00" waitingCount="0" stopTime="0.00" timeLoss="22.00" rerouteNo="0" devices="tripinfo_car_8" vType="typeCar" speedFactor="0.94" vaporized=""/>
    <tripinfo id="car_5" depart="17.00" departLane="w2A_0" departPos="5.10" departSpeed="0.00" departDelay="2.00" arrival="74.00" arrivalLane="A2e_0" arrivalPos="189.60" arrivalSpeed="11.38" duration="57.00" routeLength="394.90" waitingTime="2.00" waitingCount="1" stopTime="0.00" timeLoss="22.59" rerouteNo="0" devices="tripinfo_car_5" vType="typeCar" speedFactor="0.83" vaporized=""/>
    <tripinfo id="car_12" depart="28.00" departLane="e2A_0" departPos="5.10" departSpeed="0.00" departDelay="0.00" arrival="74.00" arrivalLane="A2w_0" arrivalPos="189.60" arrivalSpeed="14.17" duration="46.00" routeLength="394.90" waitingTime="0.00" waitingCount="0" stopTime="0.00" timeLoss="18.63" rerouteNo="0" devices="tripinfo_car_12" vType="typeCar" speedFactor="1.05" vaporized=""/>
    <tripinfo id="car_11" depart="31.00" departLane="w2A_0" departPos="5.10" departSpeed="0.00" departDelay="3.00" arrival="76.00" arrivalLane="A2e_0" arrivalPos="189.60" arrivalSpeed="12.71" duration="45.00" routeLength="394.90" waitingTime="0.00" waitingCount="0" stopTime="0.00" timeLoss="16.77" rerouteNo="0" devices="tripinfo_car_11" vType="typeCar" speedFactor="1.03" vaporized=""/>
    <tripinfo id="car_14" depart="34.00" departLane="e2A_0" departPos="5.10" departSpeed="0.00" departDelay="0.00" arrival="76.00" arrivalLane="A2w_0" arrivalPos="189.60" arrivalSpeed="13.73" duration="42.00" routeLength="394.90" waitingTime="0.00" waitingCount="0" stopTime="0.00" timeLoss="13.02" rerouteNo="0" devices="tripinfo_car_14" vType="typeCar" speedFactor="0.99" vaporized=""/>
    <tripinfo id="car_13" depart="36.00" departLane="w2A_0" departPos="5.10" departSpeed="0.00" departDelay="5.00" arrival="78.00" arrivalLane="A2e_0" arrivalPos="189.60" arrivalSpeed="13.21" duration="42.00" routeLength="394.90" waitingTime="0.00" waitingCount="0" stopTime="0.00" timeLoss="15.87" rerouteNo="0" devices="tripinfo_car_13" vType="typeCar" speedFactor="1.12" vaporized=""/>
    <tripinfo id="car_17" depart="40.00" departLane="e2A_0" departPos="5.10" departSpeed="0.00" departDelay="0.00" arrival="81.00" arrivalLane="A2w_0" arrivalPos="189.60" arrivalSpeed="12.83" duration="41.00" routeLength="394.90" waitingTime="0.00" waitingCount="0" stopTime="0.00" timeLoss="10.20" rerouteNo="0" devices="tripinfo_car_17" vType="typeCar" speedFactor="0.94" vaporized=""/>
    <tripinfo id="car_15" depart="41.00" departLane="w2A_0" departPos="5.10" departSpeed="0.00" departDelay="5.00" arrival="83.00" arrivalLane="A2e_0" arrivalPos="189.60" arrivalSpeed="12.84" duration="42.00" routeLength="394.90" waitingTime="0.00" waitingCount="0" stopTime="0.00" timeLoss="11.05" rerouteNo="0" devices="tripinfo_car_15" vType="typeCar" speedFactor="0.93" vaporized=""/>
    <tripinfo id="car_19" depart="45.00" departLane="e2A_0" departPos="5.10" departSpeed="0.00" departDelay="1.00" arrival="83.00" arrivalLane="A2w_0" arrivalPos="189.60" arrivalSpeed="15.86" duration="38.00" routeLength="394.90" waitingTime="0.00" waitingCount="0" stopTime="0.00" timeLoss="13.11" rerouteNo="0" devices="tripinfo_car_19" vType="typeCar" speedFactor="1.16" vaporized=""/>
    <tripinfo id="car_22" depart="53.00" departLane="w2A_0" departPos="5.10" departSpeed="0.00" departDelay="0.00" arrival="94.00" arrivalLane="A2e_0" arrivalPos="189.60" arrivalSpeed="13.30" duration="41.00" routeLength="394.90" waitingTime="0.00" waitingCount="0" stopTime="0.00" timeLoss="10.91" rerouteNo="0" devices="tripinfo_car_22" vType="typeCar" speedFactor="0.98" vaporized=""/>
    <tripinfo id="car_26" depart="60.00" departLane="e2A_0" departPos="5.10" departSpeed="0.00" departDelay="0.00" arrival="102.00" arrivalLane="A2w_0" arrivalPos="189.60" arrivalSpeed="12.35" duration="42.00" routeLength="394.90" waitingTime="0.00" waitingCount="0" stopTime="0.00" timeLoss="10.60" rerouteNo="0" devices="tripinfo_car_26" vType="typeCar" speedFactor="0.92" vaporized=""/>
    <tripinfo id="car_24" depart="58.00" departLane="w2A_0" departPos="5.10" departSpeed="0.00" departDelay="2.00" arrival="102.00" arrivalLane="A2e_0" arrivalPos="189.60" arrivalSpeed="11.32" duration="44.00" routeLength="394.90" waitingTime="0.00" waitingCount="0" stopTime="0.00" timeLoss="9.48" rerouteNo="0" devices="tripinfo_car_24" vType="typeCar" speedFactor="0.83" vaporized=""/>
    <tripinfo id="car_18" depart="42.00" departLane="n2A_0" departPos="5.10" departSpeed="0.00" departDelay="0.00" arrival="115.00" arrivalLane="A2s_1" arrivalPos="189.60" arrivalSpeed="12.97" duration="73.00" routeLength="394.90" waitingTime="19.00" waitingCount="1" stopTime="0.00" timeLoss="42.49" rerouteNo="0" devices="tripinfo_car_18" vType="typeCar" speedFactor="0.94" vaporized=""/>
    <tripinfo id="car_9" depart="25.00" departLane="n2A_0" departPos="5.10" departSpeed="0.00" departDelay="0.00" arrival="116.00" arrivalLane="A2s_0" arrivalPos="189.60" arrivalSpeed="11.87" duration="91.00" routeLength="394.90" waitingTime="38.00" waitingCount="1" stopTime="0.00" timeLoss="57.80" rerouteNo="0" devices="tripinfo_car_9" vType="typeCar" speedFactor="0.86" vaporized=""/>
    <tripinfo id="car_16" depart="37.00" departLane="s2A_0" departPos="5.10" departSpeed="0.00" departDelay="0.00" arrival="117.00" arrivalLane="A2n_1" arrivalPos="189.60" arrivalSpeed="11.93" duration="80.00" routeLength="394.90" waitingTime="26.00" waitingCount="1" stopTime="0.00" timeLoss="46.67" rerouteNo="0" devices="tripinfo_car_16" vType="typeCar" speedFactor="0.88" vaporized=""/>
    <tripinfo id="car_7" depart="20.00" departLane="s2A_0" departPos="5.10" departSpeed="0.00" departDelay="0.00" arrival="117.00" arrivalLane="A2n_0" arrivalPos="189.60" arrivalSpeed="12.28" duration="97.00" routeLength="394.90" waitingTime="42.00" waitingCount="1" stopTime="0.00" timeLoss="64.04" rerouteNo="0" devices="tripinfo_car_7" vType="typeCar" speedFactor="0.89" vaporized=""/>
    <tripinfo id="car_20" depart="47.00" departLane="n2A_0" departPos="5.10" departSpeed="0.00" departDelay="1.00" arrival="118.00" arrivalLane="A2s_0" arrivalPos="189.60" arrivalSpeed="12.79" duration="71.00" routeLength="394.90" waitingTime="16.00" waitingCount="1" stopTime="0.00" timeLoss="42.72" rerouteNo="0" devices="tripinfo_car_20" vType="typeCar" speedFactor="1.02" vaporized=""/>
    <tripinfo id="car_21" depart="53.00" departLane="n2A_0" departPos="5.10" departSpeed="0.00" departDelay="1.00" arrival="119.00" arrivalLane="A2s_1" arrivalPos="189.60" arrivalSpeed="13.77" duration="66.00" routeLength="394.90" waitingTime="10.00" waitingCount="1" stopTime="0.00" timeLoss="36.94" rerouteNo="0" devices="tripinfo_car_21" vType="typeCar" speedFactor="1.01" vaporized=""/>
    <tripinfo id="car_25" depart="60.00" departLane="s2A_0" departPos="5.10" departSpeed="0.00" departDelay="0.00" arrival="119.00" arrivalLane="A2n_0" arrivalPos="189.60" arrivalSpeed="11.91" duration="59.00" routeLength="394.90" waitingTime="3.00" waitingCount="1" stopTime="0.00" timeLoss="25.52" rerouteNo="0" devices="tripinfo_car_25" vType="typeCar" speedFactor="0.87" vaporized=""/>
    <tripinfo id="car_29" depart="65.00" departLane="n2A_0" departPos="5.10" departSpeed="0.00" departDelay="0.00" arrival="121.00" arrivalLane="A2s_1" arrivalPos="189.60" arrivalSpeed="12.92" duration="56.00" routeLength="394.90" waitingTime="1.00" waitingCount="1" stopTime="0.00" timeLoss="24.75" rerouteNo="0" devices="tripinfo_car_29" vType="typeCar" speedFactor="0.93" vaporized=""/>
    <tripinfo id="car_23" depart="58.00" departLane="n2A_0" departPos="5.10" departSpeed="0.00" departDelay="4.00" arrival="121.00" arrivalLane="A2s_0" arrivalPos="189.60" arrivalSpeed="12.24" duration="63.00" routeLength="394.90" waitingTime="7.00" waitingCount="1" stopTime="0.00" timeLoss="30.20" rerouteNo="0" devices="tripinfo_car_23" vType="typeCar" speedFactor="0.89" vaporized=""/>
    <tripinfo id="car_37" depart="84.00" departLane="n2A_0" departPos="5.10" departSpeed="0.00" departDelay="0.00" arrival="122.00" arrivalLane="A2s_0" arrivalPos="189.60" arrivalSpeed="12.87" duration="38.00" routeLength="394.90" waitingTime="0.00" waitingCount="0" stopTime="0.00" timeLoss="13.78" rerouteNo="0" devices="tripinfo_car_37" vType="typeCar" speedFactor="1.18" vaporized=""/>
    <tripinfo id="car_43" depart="98.00" departLane="n2A_0" departPos="5.10" departSpeed="0.00" departDelay="0.00" arrival="137.00" arrivalLane="A2s_0" arrivalPos="189.60" arrivalSpeed="14.28" duration="39.00" routeLength="394.90" waitingTime="0.00" waitingCount="0" stopTime="0.00" timeLoss="11.45" rerouteNo="0" devices="tripinfo_car_43" vType="typeCar" speedFactor="1.04" vaporized=""/>
    <tripinfo id="car_41" depart="96.00" departLane="s2A_0" departPos="5.10" departSpeed="0.00" departDelay="0.00" arrival="137.00" arrivalLane="A2n_0" arrivalPos="189.60" arrivalSpeed="13.20" duration="41.00" routeLength="394.90" waitingTime="0.00" waitingCount="0" stopTime="0.00" timeLoss="10.53" rerouteNo="0" devices="tripinfo_car_41" vType="typeCar" speedFactor="0.96" vaporized=""/>
    <tripinfo id="car_44" depart="103.00" departLane="n2A_0" departPos="5.10" departSpeed="0.00" departDelay="4.00" arrival="142.00" arrivalLane="A2s_0" arrivalPos="189.60" arrivalSpeed="14.10" duration="39.00" routeLength="394.90" waitingTime="0.00" waitingCount="0" stopTime="0.00" timeLoss="11.68" rerouteNo="0" devices="tripinfo_car_44" vType="typeCar" speedFactor="1.04" vaporized=""/>
    <tripinfo id="car_33" depart="78.00" departLane="w2A_0" departPos="5.10" departSpeed="0.00" departDelay="0.00" arrival="160.00" arrivalLane="A2e_1" arrivalPos="189.60" arrivalSpeed="15.53" duration="82.00" routeLength="394.90" waitingTime="30.00" waitingCount="1" stopTime="0.00" timeLoss="57.59" rerouteNo="0" devices="tripinfo_car_33" vType="typeCar" speedFactor="1.17" vaporized=""/>
    <tripinfo id="car_31" depart="71.00" departLane="w2A_0" departPos="5.10" departSpeed="0.00" departDelay="0.00" arrival="160.00" arrivalLane="A2e_0" arrivalPos="189.60" arrivalSpeed="15.72" duration="89.00" routeLength="394.90" waitingTime="36.00" waitingCount="1" stopTime="0.00" timeLoss="64.00" rerouteNo="0" devices="tripinfo_car_31" vType="typeCar" speedFactor="1.15" vaporized=""/>
    <tripinfo id="car_28" depart="70.00" departLane="e2A_0" departPos="5.10" departSpeed="0.00" departDelay="6.00" arrival="161.00" arrivalLane="A2w_0" arrivalPos="189.60" arrivalSpeed="15.70" duration="91.00" routeLength="394.90" waitingTime="38.00" waitingCount="1" stopTime="0.00" timeLoss="65.16" rerouteNo="0" devices="tripinfo_car_28" vType="typeCar" speedFactor="1.13" vaporized=""/>
    <tripinfo id="car_27" depart="65.00" departLane="e2A_0" departPos="5.10" departSpeed="0.00" departDelay="4.00" arrival="162.00" arrivalLane="A2w_0" arrivalPos="189.60" arrivalSpeed="12.79" duration="97.00" routeLength="394.90" waitingTime="42.00" waitingCount="1" stopTime="0.00" timeLoss="66.49" rerouteNo="0" devices="tripinfo_car_27" vType="typeCar" speedFactor="0.95" vaporized=""/>
    <tripinfo id="car_36" depart="83.00" departLane="w2A_0" departPos="5.10" departSpeed="0.00" departDelay="0.00" arrival="162.00" arrivalLane="A2e_0" arrivalPos="189.60" arrivalSpeed="13.24" duration="79.00" routeLength="394.90" waitingTime="26.00" waitingCount="1" stopTime="0.00" timeLoss="49.48" rerouteNo="0" devices="tripinfo_car_36" vType="typeCar" speedFactor="0.97" vaporized=""/>
    <tripinfo id="car_32" depart="80.00" departLane="e2A_0" departPos="5.10" departSpeed="0.00" departDelay="3.00" arrival="163.00" arrivalLane="A2w_1" arrivalPos="189.60" arrivalSpeed="13.82" duration="83.00" routeLength="394.90" waitingTime="29.00" waitingCount="1" stopTime="0.00" timeLoss="54.16" rerouteNo="0" devices="tripinfo_car_32" vType="typeCar" speedFactor="1.01" vaporized=""/>
    <tripinfo id="car_39" depart="88.00" departLane="w2A_0" departPos="5.10" departSpeed="0.00" departDelay="2.00" arrival="163.00" arrivalLane="A2e_1" arrivalPos="189.60" arrivalSpeed="12.33" duration="75.00" routeLength="394.90" waitingTime="19.00" waitingCount="1" stopTime="0.00" timeLoss="42.74" rerouteNo="0" devices="tripinfo_car_39" vType="typeCar" speedFactor="0.90" vaporized=""/>
    <tripinfo id="car_30" depart="75.00" departLane="e2A_0" departPos="5.10" departSpeed="0.00" departDelay="9.00" arrival="164.00" arrivalLane="A2w_0" arrivalPos="189.60" arrivalSpeed="14.27" duration="89.00" routeLength="394.90" waitingTime="33.00" waitingCount="1" stopTime="0.00" timeLoss="64.02" rerouteNo="0" devices="tripinfo_car_30" vType="typeCar" speedFactor="1.18" vaporized=""/>
    <tripinfo id="car_42" depart="96.00" departLane="w2A_0" departPos="5.10" departSpeed="0.00" departDelay="0.00" arrival="164.00" arrivalLane="A2e_0" arrivalPos="189.60" arrivalSpeed="14.87" duration="68.00" routeLength="394.90" waitingTime="14.00" waitingCount="1" stopTime="0.00" timeLoss="41.18" rerouteNo="0" devices="tripinfo_car_42" vType="typeCar" speedFactor="1.09" vaporized=""/>
    <tripinfo id="car_35" depart="90.00" departLane="e2A_0" departPos="5.10" departSpeed="0.00" departDelay="9.00" arrival="165.00" arrivalLane="A2w_1" arrivalPos="189.60" arrivalSpeed="13.97" duration="75.00" routeLength="394.90" waitingTime="19.00" waitingCount="1" stopTime="0.00" timeLoss="46.63" rerouteNo="0" devices="tripinfo_car_35" vType="typeCar" speedFactor="1.02" vaporized=""/>
    <tripinfo id="car_34" depart="85.00" departLane="e2A_0" departPos="5.10" departSpeed="0.00" departDelay="7.00" arrival="165.00" arrivalLane="A2w_0" arrivalPos="189.60" arrivalSpeed="13.56" duration="80.00" routeLength="394.90" waitingTime="27.00" waitingCount="1" stopTime="0.00" timeLoss="51.09" rerouteNo="0" devices="tripinfo_car_34" vType="typeCar" speedFactor="0.99" vaporized=""/>
    <tripinfo id="car_49" depart="113.00" departLane="w2A_0" departPos="5.10" departSpeed="0.00" departDelay="0.00" arrival="165.00" arrivalLane="A2e_1" arrivalPos="189.60" arrivalSpeed="11.45" duration="52.00" routeLength="394.90" waitingTime="0.00" waitingCount="0" stopTime="0.00" timeLoss="18.34" rerouteNo="0" devices="tripinfo_car_49" vType="typeCar" speedFactor="0.85" vaporized=""/>
    <tripinfo id="car_54" depart="123.00" departLane="w2A_0" departPos="5.10" departSpeed="0.00" departDelay="0.00" arrival="165.00" arrivalLane="A2e_0" arrivalPos="189.60" arrivalSpeed="13.87" duration="42.00" routeLength="394.90" waitingTime="0.00" waitingCount="0" stopTime="0.00" timeLoss="13.52" rerouteNo="0" devices="tripinfo_car_54" vType="typeCar" speedFactor="1.00" vaporized=""/>
    <tripinfo id="car_40" depart="100.00" departLane="e2A_0" departPos="5.10" departSpeed="0.00" departDelay="11.00" arrival="167.00" arrivalLane="A2w_1" arrivalPos="189.60" arrivalSpeed="13.98" duration="67.00" routeLength="394.90" waitingTime="11.00" waitingCount="1" stopTime="0.00" timeLoss="38.85" rerouteNo="0" devices="tripinfo_car_40" vType="typeCar" speedFactor="1.03" vaporized=""/>
    <tripinfo id="car_38" depart="95.00" departLane="e2A_0" departPos="5.10" departSpeed="0.00" departDelay="10.00" arrival="167.00" arrivalLane="A2w_0" arrivalPos="189.60" arrivalSpeed="14.96" duration="72.00" routeLength="394.90" waitingTime="17.00" waitingCount="1" stopTime="0.00" timeLoss="45.44" rerouteNo="0" devices="tripinfo_car_38" vType="typeCar" speedFactor="1.10" vaporized=""/>
    <tripinfo id="car_45" depart="106.00" departLane="e2A_0" departPos="5.10" departSpeed="0.00" departDelay="4.00" arrival="169.00" arrivalLane="A2w_0" arrivalPos="189.60" arrivalSpeed="14.84" duration="63.00" routeLength="394.90" waitingTime="8.00" waitingCount="1" stopTime="0.00" timeLoss="35.96" rerouteNo="0" devices="tripinfo_car_45" vType="typeCar" speedFactor="1.09" vaporized=""/>
    <tripinfo id="car_47" depart="111.00" departLane="e2A_0" departPos="5.10" departSpeed="0.00" departDelay="5.00" arrival="170.00" arrivalLane="A2w_1" arrivalPos="189.60" arrivalSpeed="12.44" duration="59.00" routeLength="394.90" waitingTime="3.00" waitingCount="1" stopTime="0.00" timeLoss="26.62" rerouteNo="0" devices="tripinfo_car_47" vType="typeCar" speedFactor="0.90" vaporized=""/>
    <tripinfo id="car_57" depart="131.00" departLane="e2A_0" departPos="5.10" departSpeed="0.00" departDelay="0.00" arrival="170.00" arrivalLane="A2w_0" arrivalPos="189.60" arrivalSpeed="15.67" duration="39.00" routeLength="394.90" waitingTime="0.00" waitingCount="0" stopTime="0.00" timeLoss="13.81" rerouteNo="0" devices="tripinfo_car_57" vType="typeCar" speedFactor="1.14" vaporized=""/>
    <tripinfo id="car_56" depart="128.00" departLane="w2A_0" departPos="5.10" departSpeed="0.00" departDelay="2.00" arrival="171.00" arrivalLane="A2e_0" arrivalPos="189.60" arrivalSpeed="12.36" duration="43.00" routeLength="394.90" waitingTime="1.00" waitingCount="1" stopTime="0.00" timeLoss="11.29" rerouteNo="0" devices="tripinfo_car_56" vType="typeCar" speedFactor="0.90" vaporized=""/>
    <tripinfo id="car_59" depart="134.00" departLane="w2A_0" departPos="5.10" departSpeed="0.00" departDelay="0.00" arrival="174.00" arrivalLane="A2e_0" arrivalPos="189.60" arrivalSpeed="13.43" duration="40.00" routeLength="394.90" waitingTime="0.00" waitingCount="0" stopTime="0.00" timeLoss="10.63" rerouteNo="0" devices="tripinfo_car_59" vType="typeCar" speedFactor="0.97" vaporized=""/>
    <tripinfo id="car_61" depart="140.00" departLane="e2A_0" departPos="5.10" departSpeed="0.00" departDelay="0.00" arrival="177.00" arrivalLane="A2w_0" arrivalPos="189.60" arrivalSpeed="15.36" duration="37.00" routeLength="394.90" waitingTime="0.00" waitingCount="0" stopTime="0.00" timeLoss="11.37" rerouteNo="0" devices="tripinfo_car_61" vType="typeCar" speedFactor="1.12" vaporized=""/>
    <tripinfo id="car_63" depart="141.00" departLane="w2A_0" departPos="5.10" departSpeed="0.00" departDelay="0.00" arrival="181.00" arrivalLane="A2e_0" arrivalPos="189.60" arrivalSpeed="13.37" duration="40.00" routeLength="394.90" waitingTime="0.00" waitingCount="0" stopTime="0.00" timeLoss="10.67" rerouteNo="0" devices="tripinfo_car_63" vType="typeCar" speedFactor="0.99" vaporized=""/>
    <tripinfo id="car_65" depart="145.00" departLane="e2A_0" departPos="5.10" departSpeed="0.00" departDelay="3.00" arrival="188.00" arrivalLane="A2w_0" arrivalPos="189.60" arrivalSpeed="12.04" duration="43.00" routeLength="394.90" waitingTime="0.00" waitingCount="0" stopTime="0.00" timeLoss="10.45" rerouteNo="0" devices="tripinfo_car_65" vType="typeCar" speedFactor="0.88" vaporized=""/>
    <tripinfo id="car_64" depart="146.00" departLane="w2A_0" departPos="5.10" departSpeed="0.00" departDelay="4.00" arrival="188.00" arrivalLane="A2e_0" arrivalPos="189.60" arrivalSpeed="12.82" duration="42.00" routeLength="394.90" waitingTime="0.00" waitingCount="0" stopTime="0.00" timeLoss="11.43" rerouteNo="0" devices="tripinfo_car_64" vType="typeCar" speedFactor="0.94" vaporized=""/>
    <tripinfo id="car_70" depart="151.00" departLane="e2A_0" departPos="5.10" departSpeed="0.00" departDelay="0.00" arrival="191.00" arrivalLane="A2w_0" arrivalPos="189.60" arrivalSpeed="14.08" duration="40.00" routeLength="394.90" waitingTime="0.00" waitingCount="0" stopTime="0.00" timeLoss="11.98" rerouteNo="0" devices="tripinfo_car_70" vType="typeCar" speedFactor="1.02" vaporized=""/>
    <tripinfo id="car_66" depart="151.00" departLane="w2A_0" departPos="5.10" departSpeed="0.00" departDelay="6.00" arrival="194.00" arrivalLane="A2e_0" arrivalPos="189.60" arrivalSpeed="12.57" duration="43.00" routeLength="394.90" waitingTime="0.00" waitingCount="0" stopTime="0.00" timeLoss="11.04" rerouteNo="0" devices="tripinfo_car_66" vType="typeCar" speedFactor="0.91" vaporized=""/>
    <tripinfo id="car_51" depart="118.00" departLane="n2A_0" departPos="5.10" departSpeed="0.00" departDelay="0.00" arrival="204.00" arrivalLane="A2s_0" arrivalPos="189.60" arrivalSpeed="16.07" duration="86.00" routeLength="394.90" waitingTime="35.00" waitingCount="1" stopTime="0.00" timeLoss="61.37" rerouteNo="0" devices="tripinfo_car_51" vType="typeCar" speedFactor="1.17" vaporized=""/>
    <tripinfo id="car_46" depart="108.00" departLane="n2A_0" departPos="5.10" departSpeed="0.00" departDelay="3.00" arrival="206.00" arrivalLane="A2s_0" arrivalPos="189.60" arrivalSpeed="13.61" duration="98.00" routeLength="394.90" waitingTime="44.00" waitingCount="1" stopTime="0.00" timeLoss="68.52" rerouteNo="0" devices="tripinfo_car_46" vType="typeCar" speedFactor="1.00" vaporized=""/>
    <tripinfo id="car_50" depart="116.00" departLane="s2A_0" departPos="5.10" departSpeed="0.00" departDelay="0.00" arrival="207.00" arrivalLane="A2n_1" arrivalPos="189.60" arrivalSpeed="11.59" duration="91.00" routeLength="394.90" waitingTime="36.00" waitingCount="1" stopTime="0.00" timeLoss="57.44" rerouteNo="0" devices="tripinfo_car_50" vType="typeCar" speedFactor="0.85" vaporized=""/>
    <tripinfo id="car_48" depart="110.00" departLane="s2A_0" departPos="5.10" departSpeed="0.00" departDelay="0.00" arrival="207.00" arrivalLane="A2n_0" arrivalPos="189.60" arrivalSpeed="12.04" duration="97.00" routeLength="394.90" waitingTime="42.00" waitingCount="1" stopTime="0.00" timeLoss="64.41" rerouteNo="0" devices="tripinfo_car_48" vType="typeCar" speedFactor="0.88" vaporized=""/>
    <tripinfo id="car_53" depart="123.00" departLane="n2A_0" departPos="5.10" departSpeed="0.00" departDelay="0.00" arrival="208.00" arrivalLane="A2s_0" arrivalPos="189.60" arrivalSpeed="15.03" duration="85.00" routeLength="394.90" waitingTime="31.00" waitingCount="1" stopTime="0.00" timeLoss="58.83" rerouteNo="0" devices="tripinfo_car_53" vType="typeCar" speedFactor="1.10" vaporized=""/>
    <tripinfo id="car_55" depart="128.00" departLane="n2A_0" departPos="5.10" departSpeed="0.00" departDelay="3.00" arrival="208.00" arrivalLane="A2s_1" arrivalPos="189.60" arrivalSpeed="13.63" duration="80.00" routeLength="394.90" waitingTime="26.00" waitingCount="1" stopTime="0.00" timeLoss="51.30" rerouteNo="0" devices="tripinfo_car_55" vType="typeCar" speedFactor="1.00" vaporized=""/>
    <tripinfo id="car_58" depart="134.00" departLane="s2A_0" departPos="5.10" departSpeed="0.00" departDelay="0.00" arrival="209.00" arrivalLane="A2n_1" arrivalPos="189.60" arrivalSpeed="13.20" duration="75.00" routeLength="394.90" waitingTime="19.00" waitingCount="1" stopTime="0.00" timeLoss="46.62" rerouteNo="0" devices="tripinfo_car_58" vType="typeCar" speedFactor="1.02" vaporized=""/>
    <tripinfo id="car_52" depart="122.00" departLane="s2A_0" departPos="5.10" departSpeed="0.00" departDelay="0.00" arrival="209.00" arrivalLane="A2n_0" arrivalPos="189.60" arrivalSpeed="13.48" duration="87.00" routeLength="394.90" waitingTime="33.00" waitingCount="1" stopTime="0.00" timeLoss="58.46" rerouteNo="0" devices="tripinfo_car_52" vType="typeCar" speedFactor="1.02" vaporized=""/>
    <tripinfo id="car_74" depart="158.00" departLane="s2A_0" departPos="5.10" departSpeed="0.00" departDelay="0.00" arrival="210.00" arrivalLane="A2n_0" arrivalPos="189.60" arrivalSpeed="13.23" duration="52.00" routeLength="394.90" waitingTime="0.00" waitingCount="0" stopTime="0.00" timeLoss="22.23" rerouteNo="0" devices="tripinfo_car_74" vType="typeCar" speedFactor="0.96" vaporized=""/>
    <tripinfo id="car_60" depart="137.00" departLane="n2A_0" departPos="5.10" departSpeed="0.00" departDelay="0.00" arrival="210.00" arrivalLane="A2s_0" arrivalPos="189.60" arrivalSpeed="14.65" duration="73.00" routeLength="394.90" waitingTime="18.00" waitingCount="1" stopTime="0.00" timeLoss="46.67" rerouteNo="0" devices="tripinfo_car_60" vType="typeCar" speedFactor="1.08" vaporized=""/>
    <tripinfo id="car_62" depart="142.00" departLane="n2A_0" departPos="5.10" departSpeed="0.00" departDelay="1.00" arrival="211.00" arrivalLane="A2s_1" arrivalPos="189.60" arrivalSpeed="14.00" duration="69.00" routeLength="394.90" waitingTime="14.00" waitingCount="1" stopTime="0.00" timeLoss="40.82" rerouteNo="0" devices="tripinfo_car_62" vType="typeCar" speedFactor="1.02" vaporized=""/>
    <tripinfo id="car_67" depart="147.00" departLane="n2A_0" departPos="5.10" departSpeed="0.00" departDelay="1.00" arrival="213.00" arrivalLane="A2s_0" arrivalPos="189.60" arrivalSpeed="12.70" duration="66.00" routeLength="394.90" waitingTime="11.00" waitingCount="1" stopTime="0.00" timeLoss="34.30" rerouteNo="0" devices="tripinfo_car_67" vType="typeCar" speedFactor="0.91" vaporized=""/>
    <tripinfo id="car_80" depart="188.00" departLane="n2A_0" departPos="5.10" departSpeed="0.00" departDelay="0.00" arrival="228.00" arrivalLane="A2s_0" arrivalPos="189.60" arrivalSpeed="14.00" duration="40.00" routeLength="394.90" waitingTime="0.00" waitingCount="0" stopTime="0.00" timeLoss="11.65" rerouteNo="0" devices="tripinfo_car_80" vType="typeCar" speedFactor="1.03" vaporized=""/>
    <tripinfo id="car_82" depart="190.00" departLane="s2A_0" departPos="5.10" departSpeed="0.00" departDelay="0.00" arrival="229.00" arrivalLane="A2n_0" arrivalPos="189.60" arrivalSpeed="14.02" duration="39.00" routeLength="394.90" waitingTime="0.00" waitingCount="0" stopTime="0.00" timeLoss="11.02" rerouteNo="0" devices="tripinfo_car_82" vType="typeCar" speedFactor="1.02" vaporized=""/>
    <tripinfo id="car_83" depart="193.00" departLane="n2A_0" departPos="5.10" departSpeed="0.00" departDelay="1.00" arrival="234.00" arrivalLane="A2s_0" arrivalPos="189.60" arrivalSpeed="13.28" duration="41.00" routeLength="394.90" waitingTime="0.00" waitingCount="0" stopTime="0.00" timeLoss="10.98" rerouteNo="0" devices="tripinfo_car_83" vType="typeCar" speedFactor="0.97" vaporized=""/>
    <tripinfo id="car_69" depart="162.00" departLane="w2A_0" departPos="5.10" departSpeed="0.00" departDelay="11.00" arrival="250.00" arrivalLane="A2e_1" arrivalPos="189.60" arrivalSpeed="14.14" duration="88.00" routeLength="394.90" waitingTime="36.00" waitingCount="1" stopTime="0.00" timeLoss="59.87" rerouteNo="0" devices="tripinfo_car_69" vType="typeCar" speedFactor="1.02" vaporized=""/>