<?xml version="1.0" encoding="UTF-8"?>

<!-- generated on Tue Oct  9 11:23:23 2018 by Eclipse SUMO GUI Version 1.0.0
<configuration xmlns:xsi="http://www.w3.org/2001/XMLSchema-instance" xsi:noNamespaceSchemaLocation="http://sumo.dlr.de/xsd/sumoConfiguration.xsd">

    <input>
        <net-file value="data/cross.net.xml"/>
        <route-files value="data/cross.rou.xml"/>
        <additional-files value="data/cross.det.xml"/>
    </input>

    <output>
        <tripinfo-output value="tripinfo.xml"/>
    </output>

    <time>
        <begin value="0"/>
    </time>

    <report>
        <verbose value="true"/>
        <no-step-log value="true"/>
    </report>

    <traci_server>
        <remote-port value="59659"/>
    </traci_server>

    <gui_only>
        <gui-settings-file value="data/cross.settings.xml"/>
    </gui_only>

</configuration>
-->

<tripinfos xmlns:xsi="http://www.w3.org/2001/XMLSchema-instance" xsi:noNamespaceSchemaLocation="http://sumo.dlr.de/xsd/tripinfo_file.xsd">
    <tripinfo id="car_0" depart="0.00" departLane="w2A_0" departPos="5.10" departSpeed="0.00" departDelay="0.00" arrival="39.00" arrivalLane="A2e_0" arrivalPos="189.60" arrivalSpeed="14.68" duration="39.00" routeLength="394.90" waitingTime="0.00" waitingCount="0" stopTime="0.00" timeLoss="11.79" rerouteNo="0" devices="tripinfo_car_0" vType="typeCar" speedFactor="1.06" vaporized=""/>
    <tripinfo id="car_3" depart="13.00" departLane="w2A_0" departPos="5.10" departSpeed="0.00" departDelay="0.00" arrival="52.00" arrivalLane="A2e_0" arrivalPos="189.60" arrivalSpeed="14.97" duration="39.00" routeLength="394.90" waitingTime="0.00" waitingCount="0" stopTime="0.00" timeLoss="12.26" rerouteNo="0" devices="tripinfo_car_3" vType="typeCar" speedFactor="1.08" vaporized=""/>
    <tripinfo id="car_5" depart="21.00" departLane="e2A_0" departPos="5.10" departSpeed="0.00" departDelay="0.00" arrival="64.00" arrivalLane="A2w_0" arrivalPos="189.60" arrivalSpeed="11.40" duration="43.00" routeLength="394.90" waitingTime="0.00" waitingCount="0" stopTime="0.00" timeLoss="8.77" rerouteNo="0" devices="tripinfo_car_5" vType="typeCar" speedFactor="0.83" vaporized=""/>
    <tripinfo id="car_4" depart="21.00" departLane="n2A_0" departPos="5.10" departSpeed="0.00" departDelay="0.00" arrival="75.00" arrivalLane="A2s_1" arrivalPos="189.60" arrivalSpeed="14.00" duration="54.00" routeLength="394.90" waitingTime="2.00" waitingCount="1" stopTime="0.00" timeLoss="26.16" rerouteNo="0" devices="tripinfo_car_4" vType="typeCar" speedFactor="1.03" vaporized=""/>
    <tripinfo id="car_12" depart="35.00" departLane="s2A_0" departPos="5.10" departSpeed="0.00" departDelay="0.00" arrival="76.00" arrivalLane="A2n_1" arrivalPos="189.60" arrivalSpeed="14.29" duration="41.00" routeLength="394.90" waitingTime="0.00" waitingCount="0" stopTime="0.00" timeLoss="13.71" rerouteNo="0" devices="tripinfo_car_12" vType="typeCar" speedFactor="1.05" vaporized=""/>
    <tripinfo id="car_2" depart="9.00" departLane="n2A_0" departPos="5.10" departSpeed="0.00" departDelay="0.00" arrival="77.00" arrivalLane="A2s_0" arrivalPos="189.60" arrivalSpeed="13.64" duration="68.00" routeLength="394.90" waitingTime="14.00" waitingCount="1" stopTime="0.00" timeLoss="38.97" rerouteNo="0" devices="tripinfo_car_2" vType="typeCar" speedFactor="1.01" vaporized=""/>
    <tripinfo id="car_1" depart="4.00" departLane="s2A_0" departPos="5.10" departSpeed="0.00" departDelay="0.00" arrival="77.00" arrivalLane="A2n_0" arrivalPos="189.60" arrivalSpeed="12.88" duration="73.00" routeLength="394.90" waitingTime="19.00" waitingCount="1" stopTime="0.00" timeLoss="42.09" rerouteNo="0" devices="tripinfo_car_1" vType="typeCar" speedFactor="0.94" vaporized=""/>
    <tripinfo id="car_6" depart="26.00" departLane="n2A_0" departPos="5.10" departSpeed="0.00" departDelay="3.00" arrival="78.00" arrivalLane="A2s_0" arrivalPos="189.60" arrivalSpeed="14.38" duration="52.00" routeLength="394.90" waitingTime="0.00" waitingCount="0" stopTime="0.00" timeLoss="24.52" rerouteNo="0" devices="tripinfo_car_6" vType="typeCar" speedFactor="1.05" vaporized=""/>
    <tripinfo id="car_7" depart="31.00" departLane="n2A_0" departPos="5.10" departSpeed="0.00" departDelay="6.00" arrival="78.00" arrivalLane="A2s_1" arrivalPos="189.60" arrivalSpeed="12.07" duration="47.00" routeLength="394.90" waitingTime="0.00" waitingCount="0" stopTime="0.00" timeLoss="14.40" rerouteNo="0" devices="tripinfo_car_7" vType="typeCar" speedFactor="0.89" vaporized=""/>
    <tripinfo id="car_13" depart="40.00" departLane="s2A_0" departPos="5.10" departSpeed="0.00" departDelay="2.00" arrival="79.00" arrivalLane="A2n_0" arrivalPos="189.60" arrivalSpeed="15.55" duration="39.00" routeLength="394.90" waitingTime="0.00" waitingCount="0" stopTime="0.00" timeLoss="12.89" rerouteNo="0" devices="tripinfo_car_13" vType="typeCar" speedFactor="1.12" vaporized=""/>
    <tripinfo id="car_14" depart="45.00" departLane="n2A_0" departPos="5.10" departSpeed="0.00" departDelay="0.00" arrival="85.00" arrivalLane="A2s_0" arrivalPos="189.60" arrivalSpeed="13.52" duration="40.00" routeLength="394.90" waitingTime="0.00" waitingCount="0" stopTime="0.00" timeLoss="10.63" rerouteNo="0" devices="tripinfo_car_14" vType="typeCar" speedFactor="0.99" vaporized=""/>
    <tripinfo id="car_16" depart="53.00" departLane="n2A_0" departPos="5.10" departSpeed="0.00" departDelay="0.00" arrival="96.00" arrivalLane="A2s_0" arrivalPos="189.60" arrivalSpeed="12.04" duration="43.00" routeLength="394.90" waitingTime="0.00" waitingCount="0" stopTime="0.00" timeLoss="10.45" rerouteNo="0" devices="tripinfo_car_16" vType="typeCar" speedFactor="0.88" vaporized=""/>
    <tripinfo id="car_10" depart="30.00" departLane="w2A_0" departPos="5.10" departSpeed="0.00" departDelay="3.00" arrival="105.00" arrivalLane="A2e_1" arrivalPos="189.60" arrivalSpeed="14.77" duration="75.00" routeLength="394.90" waitingTime="23.00" waitingCount="1" stopTime="0.00" timeLoss="48.92" rerouteNo="0" devices="tripinfo_car_10" vType="typeCar" speedFactor="1.09" vaporized=""/>
    <tripinfo id="car_8" depart="25.00" departLane="w2A_0" departPos="5.10" departSpeed="0.00" departDelay="0.00" arrival="106.00" arrivalLane="A2e_0" arrivalPos="189.60" arrivalSpeed="12.79" duration="81.00" routeLength="394.90" waitingTime="27.00" waitingCount="1" stopTime="0.00" timeLoss="50.44" rerouteNo="0" devices="tripinfo_car_8" vType="typeCar" speedFactor="0.94" vaporized=""/>
    <tripinfo id="car_15" depart="46.00" departLane="e2A_0" departPos="5.10" departSpeed="0.00" departDelay="0.00" arrival="106.00" arrivalLane="A2w_1" arrivalPos="189.60" arrivalSpeed="12.56" duration="60.00" routeLength="394.90" waitingTime="5.00" waitingCount="1" stopTime="0.00" timeLoss="28.45" rerouteNo="0" devices="tripinfo_car_15" vType="typeCar" speedFactor="0.93" vaporized=""/>
    <tripinfo id="car_9" depart="26.00" departLane="e2A_0" departPos="5.10" departSpeed="0.00" departDelay="1.00" arrival="107.00" arrivalLane="A2w_0" arrivalPos="189.60" arrivalSpeed="11.83" duration="81.00" routeLength="394.90" waitingTime="27.00" waitingCount="1" stopTime="0.00" timeLoss="47.41" rerouteNo="0" devices="tripinfo_car_9" vType="typeCar" speedFactor="0.86" vaporized=""/>
    <tripinfo id="car_21" depart="65.00" departLane="e2A_0" departPos="5.10" departSpeed="0.00" departDelay="0.00" arrival="107.00" arrivalLane="A2w_1" arrivalPos="189.60" arrivalSpeed="13.19" duration="42.00" routeLength="394.90" waitingTime="0.00" waitingCount="0" stopTime="0.00" timeLoss="13.59" rerouteNo="0" devices="tripinfo_car_21" vType="typeCar" speedFactor="1.01" vaporized=""/>
    <tripinfo id="car_11" depart="35.00" departLane="w2A_0" departPos="5.10" departSpeed="0.00" departDelay="1.00" arrival="108.00" arrivalLane="A2e_0" arrivalPos="189.60" arrivalSpeed="14.24" duration="73.00" routeLength="394.90" waitingTime="18.00" waitingCount="1" stopTime="0.00" timeLoss="44.67" rerouteNo="0" devices="tripinfo_car_11" vType="typeCar" speedFactor="1.03" vaporized=""/>
    <tripinfo id="car_17" depart="54.00" departLane="w2A_0" departPos="5.10" departSpeed="0.00" departDelay="0.00" arrival="109.00" arrivalLane="A2e_1" arrivalPos="189.60" arrivalSpeed="12.88" duration="55.00" routeLength="394.90" waitingTime="0.00" waitingCount="0" stopTime="0.00" timeLoss="24.40" rerouteNo="0" devices="tripinfo_car_17" vType="typeCar" speedFactor="0.94" vaporized=""/>
    <tripinfo id="car_18" depart="58.00" departLane="e2A_0" departPos="5.10" departSpeed="0.00" departDelay="0.00" arrival="109.00" arrivalLane="A2w_0" arrivalPos="189.60" arrivalSpeed="12.87" duration="51.00" routeLength="394.90" waitingTime="0.00" waitingCount="0" stopTime="0.00" timeLoss="19.87" rerouteNo="0" devices="tripinfo_car_18" vType="typeCar" speedFactor="0.94" vaporized=""/>
    <tripinfo id="car_20" depart="61.00" departLane="w2A_0" departPos="5.10" departSpeed="0.00" departDelay="0.00" arrival="110.00" arrivalLane="A2e_0" arrivalPos="189.60" arrivalSpeed="13.97" duration="49.00" routeLength="394.90" waitingTime="0.00" waitingCount="0" stopTime="0.00" timeLoss="20.79" rerouteNo="0" devices="tripinfo_car_20" vType="typeCar" speedFactor="1.02" vaporized=""/>
    <tripinfo id="car_22" depart="70.00" departLane="e2A_0" departPos="5.10" departSpeed="0.00" departDelay="2.00" arrival="111.00" arrivalLane="A2w_0" arrivalPos="189.60" arrivalSpeed="13.25" duration="41.00" routeLength="394.90" waitingTime="0.00" waitingCount="0" stopTime="0.00" timeLoss="11.13" rerouteNo="0" devices="tripinfo_car_22" vType="typeCar" speedFactor="0.98" vaporized=""/>
    <tripinfo id="car_25" depart="74.00" departLane="s2A_0" departPos="5.10" departSpeed="0.00" departDelay="0.00" arrival="119.00" arrivalLane="A2n_1" arrivalPos="189.60" arrivalSpeed="11.85" duration="45.00" routeLength="394.90" waitingTime="0.00" waitingCount="0" stopTime="0.00" timeLoss="12.15" rerouteNo="0" devices="tripinfo_car_25" vType="typeCar" speedFactor="0.87" vaporized=""/>
    <tripinfo id="car_26" depart="77.00" departLane="n2A_0" departPos="5.10" departSpeed="0.00" departDelay="0.00" arrival="120.00" arrivalLane="A2s_1" arrivalPos="189.60" arrivalSpeed="12.37" duration="43.00" routeLength="394.90" waitingTime="0.00" waitingCount="0" stopTime="0.00" timeLoss="11.44" rerouteNo="0" devices="tripinfo_car_26" vType="typeCar" speedFactor="0.92" vaporized=""/>
    <tripinfo id="car_28" depart="82.00" departLane="n2A_0" departPos="5.10" departSpeed="0.00" departDelay="3.00" arrival="122.00" arrivalLane="A2s_1" arrivalPos="189.60" arrivalSpeed="13.96" duration="40.00" routeLength="394.90" waitingTime="0.00" waitingCount="0" stopTime="0.00" timeLoss="14.06" rerouteNo="0" devices="tripinfo_car_28" vType="typeCar" speedFactor="1.13" vaporized=""/>
    <tripinfo id="car_19" depart="60.00" departLane="s2A_0" departPos="5.10" departSpeed="0.00" departDelay="0.00" arrival="126.00" arrivalLane="A2n_0" arrivalPos="189.60" arrivalSpeed="16.04" duration="66.00" routeLength="394.90" waitingTime="11.00" waitingCount="1" stopTime="0.00" timeLoss="40.66" rerouteNo="0" devices="tripinfo_car_19" vType="typeCar" speedFactor="1.16" vaporized=""/>
    <tripinfo id="car_23" depart="69.00" departLane="n2A_0" departPos="5.10" departSpeed="0.00" departDelay="0.00" arrival="126.00" arrivalLane="A2s_0" arrivalPos="189.60" arrivalSpeed="12.32" duration="57.00" routeLength="394.90" waitingTime="3.00" waitingCount="1" stopTime="0.00" timeLoss="24.42" rerouteNo="0" devices="tripinfo_car_23" vType="typeCar" speedFactor="0.89" vaporized=""/>
    <tripinfo id="car_34" depart="91.00" departLane="w2A_0" departPos="5.10" departSpeed="0.00" departDelay="0.00" arrival="132.00" arrivalLane="A2e_1" arrivalPos="189.60" arrivalSpeed="13.80" duration="41.00" routeLength="394.90" waitingTime="0.00" waitingCount="0" stopTime="0.00" timeLoss="12.09" rerouteNo="0" devices="tripinfo_car_34" vType="typeCar" speedFactor="0.99" vaporized=""/>
    <tripinfo id="car_27" depart="80.00" departLane="e2A_0" departPos="5.10" departSpeed="0.00" departDelay="3.00" arrival="136.00" arrivalLane="A2w_1" arrivalPos="189.60" arrivalSpeed="13.08" duration="56.00" routeLength="394.90" waitingTime="2.00" waitingCount="1" stopTime="0.00" timeLoss="25.82" rerouteNo="0" devices="tripinfo_car_27" vType="typeCar" speedFactor="0.95" vaporized=""/>
    <tripinfo id="car_29" depart="79.00" departLane="w2A_0" departPos="5.10" departSpeed="0.00" departDelay="0.00" arrival="137.00" arrivalLane="A2e_0" arrivalPos="189.60" arrivalSpeed="12.81" duration="58.00" routeLength="394.90" waitingTime="4.00" waitingCount="1" stopTime="0.00" timeLoss="27.27" rerouteNo="0" devices="tripinfo_car_29" vType="typeCar" speedFactor="0.93" vaporized=""/>
    <tripinfo id="car_24" depart="75.00" departLane="e2A_0" departPos="5.10" departSpeed="0.00" departDelay="2.00" arrival="137.00" arrivalLane="A2w_0" arrivalPos="189.60" arrivalSpeed="11.22" duration="62.00" routeLength="394.90" waitingTime="8.00" waitingCount="1" stopTime="0.00" timeLoss="27.05" rerouteNo="0" devices="tripinfo_car_24" vType="typeCar" speedFactor="0.83" vaporized=""/>
    <tripinfo id="car_32" depart="93.00" departLane="n2A_0" departPos="5.10" departSpeed="0.00" departDelay="5.00" arrival="139.00" arrivalLane="A2s_1" arrivalPos="189.60" arrivalSpeed="13.95" duration="46.00" routeLength="394.90" waitingTime="0.00" waitingCount="0" stopTime="0.00" timeLoss="17.64" rerouteNo="0" devices="tripinfo_car_32" vType="typeCar" speedFactor="1.01" vaporized=""/>
    <tripinfo id="car_31" depart="85.00" departLane="e2A_0" departPos="5.10" departSpeed="0.00" departDelay="2.00" arrival="139.00" arrivalLane="A2w_0" arrivalPos="189.60" arrivalSpeed="12.67" duration="54.00" routeLength="394.90" waitingTime="0.00" waitingCount="0" stopTime="0.00" timeLoss="28.67" rerouteNo="0" devices="tripinfo_car_31" vType="typeCar" speedFactor="1.15" vaporized=""/>
    <tripinfo id="car_30" depart="88.00" departLane="n2A_0" departPos="5.10" departSpeed="0.00" departDelay="5.00" arrival="145.00" arrivalLane="A2s_0" arrivalPos="189.60" arrivalSpeed="16.24" duration="57.00" routeLength="394.90" waitingTime="4.00" waitingCount="1" stopTime="0.00" timeLoss="32.48" rerouteNo="0" devices="tripinfo_car_30" vType="typeCar" speedFactor="1.18" vaporized=""/>
    <tripinfo id="car_33" depart="89.00" departLane="s2A_0" departPos="5.10" departSpeed="0.00" departDelay="0.00" arrival="145.00" arrivalLane="A2n_0" arrivalPos="189.60" arrivalSpeed="15.99" duration="56.00" routeLength="394.90" waitingTime="4.00" waitingCount="1" stopTime="0.00" timeLoss="31.28" rerouteNo="0" devices="tripinfo_car_33" vType="typeCar" speedFactor="1.17" vaporized=""/>
    <tripinfo id="car_36" depart="101.00" departLane="w2A_0" departPos="5.10" departSpeed="0.00" departDelay="4.00" arrival="156.00" arrivalLane="A2e_1" arrivalPos="189.60" arrivalSpeed="13.22" duration="55.00" routeLength="394.90" waitingTime="2.00" waitingCount="1" stopTime="0.00" timeLoss="25.16" rerouteNo="0" devices="tripinfo_car_36" vType="typeCar" speedFactor="0.97" vaporized=""/>
    <tripinfo id="car_35" depart="96.00" departLane="w2A_0" departPos="5.10" departSpeed="0.00" departDelay="0.00" arrival="156.00" arrivalLane="A2e_0" arrivalPos="189.60" arrivalSpeed="13.79" duration="60.00" routeLength="394.90" waitingTime="10.00" waitingCount="1" stopTime="0.00" timeLoss="31.03" rerouteNo="0" devices="tripinfo_car_35" vType="typeCar" speedFactor="1.02" vaporized=""/>
    <tripinfo id="car_37" depart="100.00" departLane="e2A_0" departPos="5.10" departSpeed="0.00" departDelay="0.00" arrival="156.00" arrivalLane="A2w_0" arrivalPos="189.60" arrivalSpeed="15.33" duration="56.00" routeLength="394.90" waitingTime="3.00" waitingCount="1" stopTime="0.00" timeLoss="31.78" rerouteNo="0" devices="tripinfo_car_37" vType="typeCar" speedFactor="1.18" vaporized=""/>
    <tripinfo id="car_41" depart="115.00" departLane="e2A_0" departPos="5.10" departSpeed="0.00" departDelay="0.00" arrival="157.00" arrivalLane="A2w_1" arrivalPos="189.60" arrivalSpeed="13.13" duration="42.00" routeLength="394.90" waitingTime="0.00" waitingCount="0" stopTime="0.00" timeLoss="11.35" rerouteNo="0" devices="tripinfo_car_41" vType="typeCar" speedFactor="0.96" vaporized=""/>
    <tripinfo id="car_39" depart="111.00" departLane="w2A_0" departPos="5.10" departSpeed="0.00" departDelay="8.00" arrival="158.00" arrivalLane="A2e_1" arrivalPos="189.60" arrivalSpeed="12.15" duration="47.00" routeLength="394.90" waitingTime="0.00" waitingCount="0" stopTime="0.00" timeLoss="15.14" rerouteNo="0" devices="tripinfo_car_39" vType="typeCar" speedFactor="0.90" vaporized=""/>
    <tripinfo id="car_38" depart="106.00" departLane="w2A_0" departPos="5.10" departSpeed="0.00" departDelay="5.00" arrival="158.00" arrivalLane="A2e_0" arrivalPos="189.60" arrivalSpeed="15.02" duration="52.00" routeLength="394.90" waitingTime="0.00" waitingCount="0" stopTime="0.00" timeLoss="25.48" rerouteNo="0" devices="tripinfo_car_38" vType="typeCar" speedFactor="1.10" vaporized=""/>
    <tripinfo id="car_40" depart="116.00" departLane="w2A_0" departPos="5.10" departSpeed="0.00" departDelay="1.00" arrival="159.00" arrivalLane="A2e_0" arrivalPos="189.60" arrivalSpeed="13.93" duration="43.00" routeLength="394.90" waitingTime="0.00" waitingCount="0" stopTime="0.00" timeLoss="15.39" rerouteNo="0" devices="tripinfo_car_40" vType="typeCar" speedFactor="1.03" vaporized=""/>
    <tripinfo id="car_42" depart="121.00" departLane="w2A_0" departPos="5.10" departSpeed="0.00" departDelay="3.00" arrival="161.00" arrivalLane="A2e_0" arrivalPos="189.60" arrivalSpeed="15.07" duration="40.00" routeLength="394.90" waitingTime="0.00" waitingCount="0" stopTime="0.00" timeLoss="13.46" rerouteNo="0" devices="tripinfo_car_42" vType="typeCar" speedFactor="1.09" vaporized=""/>
    <tripinfo id="car_45" depart="133.00" departLane="w2A_0" departPos="5.10" departSpeed="0.00" departDelay="0.00" arrival="172.00" arrivalLane="A2e_0" arrivalPos="189.60" arrivalSpeed="14.97" duration="39.00" routeLength="394.90" waitingTime="0.00" waitingCount="0" stopTime="0.00" timeLoss="12.40" rerouteNo="0" devices="tripinfo_car_45" vType="typeCar" speedFactor="1.09" vaporized=""/>
    <tripinfo id="car_46" depart="134.00" departLane="e2A_0" departPos="5.10" departSpeed="0.00" departDelay="0.00" arrival="174.00" arrivalLane="A2w_0" arrivalPos="189.60" arrivalSpeed="13.73" duration="40.00" routeLength="394.90" waitingTime="0.00" waitingCount="0" stopTime="0.00" timeLoss="11.46" rerouteNo="0" devices="tripinfo_car_46" vType="typeCar" speedFactor="1.00" vaporized=""/>
    <tripinfo id="car_48" depart="138.00" departLane="w2A_0" departPos="5.10" departSpeed="0.00" departDelay="0.00" arrival="181.00" arrivalLane="A2e_0" arrivalPos="189.60" arrivalSpeed="11.84" duration="43.00" routeLength="394.90" waitingTime="0.00" waitingCount="0" stopTime="0.00" timeLoss="10.28" rerouteNo="0" devices="tripinfo_car_48" vType="typeCar" speedFactor="0.88" vaporized=""/>
    <tripinfo id="car_49" depart="143.00" departLane="w2A_0" departPos="5.10" departSpeed="0.00" departDelay="3.00" arrival="186.00" arrivalLane="A2e_0" arrivalPos="189.60" arrivalSpeed="11.45" duration="43.00" routeLength="394.90" waitingTime="0.00" waitingCount="0" stopTime="0.00" timeLoss="9.21" rerouteNo="0" devices="tripinfo_car_49" vType="typeCar" speedFactor="0.85" vaporized=""/>
    <tripinfo id="car_55" depart="149.00" departLane="n2A_0" departPos="5.10" departSpeed="0.00" departDelay="0.00" arrival="190.00" arrivalLane="A2s_1" arrivalPos="189.60" arrivalSpeed="13.53" duration="41.00" routeLength="394.90" waitingTime="0.00" waitingCount="0" stopTime="0.00" timeLoss="12.28" rerouteNo="0" devices="tripinfo_car_55" vType="typeCar" speedFactor="1.00" vaporized=""/>
    <tripinfo id="car_43" depart="119.00" departLane="s2A_0" departPos="5.10" departSpeed="0.00" departDelay="0.00" arrival="195.00" arrivalLane="A2n_0" arrivalPos="189.60" arrivalSpeed="14.36" duration="76.00" routeLength="394.90" waitingTime="24.00" waitingCount="1" stopTime="0.00" timeLoss="48.49" rerouteNo="0" devices="tripinfo_car_43" vType="typeCar" speedFactor="1.04" vaporized=""/>
    <tripinfo id="car_47" depart="135.00" departLane="s2A_0" departPos="5.10" departSpeed="0.00" departDelay="0.00" arrival="196.00" arrivalLane="A2n_1" arrivalPos="189.60" arrivalSpeed="12.44" duration="61.00" routeLength="394.90" waitingTime="8.00" waitingCount="1" stopTime="0.00" timeLoss="29.42" rerouteNo="0" devices="tripinfo_car_47" vType="typeCar" speedFactor="0.90" vaporized=""/>
    <tripinfo id="car_44" depart="131.00" departLane="n2A_0" departPos="5.10" departSpeed="0.00" departDelay="0.00" arrival="196.00" arrivalLane="A2s_0" arrivalPos="189.60" arrivalSpeed="14.23" duration="65.00" routeLength="394.90" waitingTime="13.00" waitingCount="1" stopTime="0.00" timeLoss="36.91" rerouteNo="0" devices="tripinfo_car_44" vType="typeCar" speedFactor="1.04" vaporized=""/>
    <tripinfo id="car_51" depart="142.00" departLane="s2A_0" departPos="5.10" departSpeed="0.00" departDelay="0.00" arrival="197.00" arrivalLane="A2n_0" arrivalPos="189.60" arrivalSpeed="15.85" duration="55.00" routeLength="394.90" waitingTime="3.00" waitingCount="1" stopTime="0.00" timeLoss="30.09" rerouteNo="0" devices="tripinfo_car_51" vType="typeCar" speedFactor="1.17" vaporized=""/>
    <tripinfo id="car_53" depart="146.00" departLane="e2A_0" departPos="5.10" departSpeed="0.00" departDelay="0.00" arrival="205.00" arrivalLane="A2w_0" arrivalPos="189.60" arrivalSpeed="14.94" duration="59.00" routeLength="394.90" waitingTime="6.00" waitingCount="1" stopTime="0.00" timeLoss="32.95" rerouteNo="0" devices="tripinfo_car_53" vType="typeCar" speedFactor="1.10" vaporized=""/>
    <tripinfo id="car_54" depart="151.00" departLane="e2A_0" departPos="5.10" departSpeed="0.00" departDelay="4.00" arrival="205.00" arrivalLane="A2w_1" arrivalPos="189.60" arrivalSpeed="13.76" duration="54.00" routeLength="394.90" waitingTime="3.00" waitingCount="1" stopTime="0.00" timeLoss="25.61" rerouteNo="0" devices="tripinfo_car_54" vType="typeCar" speedFactor="1.00" vaporized=""/>
    <tripinfo id="car_52" depart="153.00" departLane="w2A_0" departPos="5.10" departSpeed="0.00" departDelay="10.00" arrival="206.00" arrivalLane="A2e_1" arrivalPos="189.60" arrivalSpeed="13.82" duration="53.00" routeLength="394.90" waitingTime="0.00" waitingCount="0" stopTime="0.00" timeLoss="24.37" rerouteNo="0" devices="tripinfo_car_52" vType="typeCar" speedFactor="1.02" vaporized=""/>
    <tripinfo id="car_63" depart="166.00" departLane="n2A_0" departPos="5.10" departSpeed="0.00" departDelay="0.00" arrival="207.00" arrivalLane="A2s_1" arrivalPos="189.60" arrivalSpeed="13.35" duration="41.00" routeLength="394.90" waitingTime="0.00" waitingCount="0" stopTime="0.00" timeLoss="11.60" rerouteNo="0" devices="tripinfo_car_63" vType="typeCar" speedFactor="0.99" vaporized=""/>
    <tripinfo id="car_50" depart="148.00" departLane="w2A_0" departPos="5.10" departSpeed="0.00" departDelay="7.00" arrival="207.00" arrivalLane="A2e_0" arrivalPos="189.60" arrivalSpeed="11.69" duration="59.00" routeLength="394.90" waitingTime="5.00" waitingCount="1" stopTime="0.00" timeLoss="25.12" rerouteNo="0" devices="tripinfo_car_50" vType="typeCar" speedFactor="0.85" vaporized=""/>
    <tripinfo id="car_57" depart="155.00" departLane="e2A_0" departPos="5.10" departSpeed="0.00" departDelay="2.00" arrival="208.00" arrivalLane="A2w_0" arrivalPos="189.60" arrivalSpeed="15.83" duration="53.00" routeLength="394.90" waitingTime="1.00" waitingCount="1" stopTime="0.00" timeLoss="27.24" rerouteNo="0" devices="tripinfo_car_57" vType="typeCar" speedFactor="1.14" vaporized=""/>
    <tripinfo id="car_59" depart="161.00" departLane="e2A_0" departPos="5.10" departSpeed="0.00" departDelay="1.00" arrival="208.00" arrivalLane="A2w_1" arrivalPos="189.60" arrivalSpeed="13.15" duration="47.00" routeLength="394.90" waitingTime="0.00" waitingCount="0" stopTime="0.00" timeLoss="16.73" rerouteNo="0" devices="tripinfo_car_59" vType="typeCar" speedFactor="0.97" vaporized=""/>
    <tripinfo id="car_56" depart="158.00" departLane="w2A_0" departPos="5.10" departSpeed="0.00" departDelay="5.00" arrival="209.00" arrivalLane="A2e_0" arrivalPos="189.60" arrivalSpeed="12.11" duration="51.00" routeLength="394.90" waitingTime="0.00" waitingCount="0" stopTime="0.00" timeLoss="18.43" rerouteNo="0" devices="tripinfo_car_56" vType="typeCar" speedFactor="0.90" vaporized=""/>
    <tripinfo id="car_58" depart="155.00" departLane="n2A_0" departPos="5.10" departSpeed="0.00" departDelay="0.00" arrival="216.00" arrivalLane="A2s_0" arrivalPos="189.60" arrivalSpeed="14.13" duration="61.00" routeLength="394.90" waitingTime="7.00" waitingCount="1" stopTime="0.00" timeLoss="32.33" rerouteNo="0" devices="tripinfo_car_58" vType="typeCar" speedFactor="1.02" vaporized=""/>
    <tripinfo id="car_60" depart="162.00" departLane="s2A_0" departPos="5.10" departSpeed="0.00" departDelay="0.00" arrival="216.00" arrivalLane="A2n_0" arrivalPos="189.60" arrivalSpeed="14.73" duration="54.00" routeLength="394.90" waitingTime="1.00" waitingCount="1" stopTime="0.00" timeLoss="26.84" rerouteNo="0" devices="tripinfo_car_60" vType="typeCar" speedFactor="1.08" vaporized=""/>
    <tripinfo id="car_65" depart="176.00" departLane="w2A_0" departPos="5.10" departSpeed="0.00" departDelay="4.00" arrival="219.00" arrivalLane="A2e_1" arrivalPos="189.60" arrivalSpeed="11.87" duration="43.00" routeLength="394.90" waitingTime="0.00" waitingCount="0" stopTime="0.00" timeLoss="10.32" rerouteNo="0" devices="tripinfo_car_65" vType="typeCar" speedFactor="0.88" vaporized=""/>
    <tripinfo id="car_68" depart="181.00" departLane="w2A_0" departPos="5.10" departSpeed="0.00" departDelay="0.00" arrival="221.00" arrivalLane="A2e_1" arrivalPos="189.60" arrivalSpeed="14.06" duration="40.00" routeLength="394.90" waitingTime="0.00" waitingCount="0" stopTime="0.00" timeLoss="11.86" rerouteNo="0" devices="tripinfo_car_68" vType="typeCar" speedFactor="1.04" vaporized=""/>
    <tripinfo id="car_61" depart="166.00" departLane="e2A_0" departPos="5.10" departSpeed="0.00" departDelay="3.00" arrival="225.00" arrivalLane="A2w_0" arrivalPos="189.60" arrivalSpeed="15.30" duration="59.00" routeLength="394.90" waitingTime="6.00" waitingCount="1" stopTime="0.00" timeLoss="33.07" rerouteNo="0" devices="tripinfo_car_61" vType="typeCar" speedFactor="1.12" vaporized=""/>
    <tripinfo id="car_62" depart="171.00" departLane="e2A_0" departPos="5.10" departSpeed="0.00" departDelay="7.00" arrival="226.00" arrivalLane="A2w_1" arrivalPos="189.60" arrivalSpeed="14.01" duration="55.00" routeLength="394.90" waitingTime="3.00" waitingCount="1" stopTime="0.00" timeLoss="26.43" rerouteNo="0" devices="tripinfo_car_62" vType="typeCar" speedFactor="1.02" vaporized=""/>
    <tripinfo id="car_64" depart="171.00" departLane="w2A_0" departPos="5.10" departSpeed="0.00" departDelay="0.00" arrival="226.00" arrivalLane="A2e_0" arrivalPos="189.60" arrivalSpeed="12.69" duration="55.00" routeLength="394.90" waitingTime="1.00" waitingCount="1" stopTime="0.00" timeLoss="24.02" rerouteNo="0" devices="tripinfo_car_64" vType="typeCar" speedFactor="0.94" vaporized=""/>
    <tripinfo id="car_71" depart="187.00" departLane="n2A_0" departPos="5.10" departSpeed="0.00" departDelay="0.00" arrival="227.00" arrivalLane="A2s_0" arrivalPos="189.60" arrivalSpeed="13.21" duration="40.00" routeLength="394.90" waitingTime="0.00" waitingCount="0" stopTime="0.00" timeLoss="10.56" rerouteNo="0" devices="tripinfo_car_71" vType="typeCar" speedFactor="0.97" vaporized=""/>
    <tripinfo id="car_69" depart="182.00" departLane="e2A_0" departPos="5.10" departSpeed="0.00" departDelay="0.00" arrival="228.00" arrivalLane="A2w_1" arrivalPos="189.60" arrivalSpeed="13.93" duration="46.00" routeLength="394.90" waitingTime="0.00" waitingCount="0" stopTime="0.00" timeLoss="17.44" rerouteNo="0" devices="tripinfo_car_69" vType="typeCar" speedFactor="1.02" vaporized=""/>
    <tripinfo id="car_67" depart="177.00" departLane="e2A_0" departPos="5.10" departSpeed="0.00" departDelay="0.00" arrival="228.00" arrivalLane="A2w_0" arrivalPos="189.60" arrivalSpeed="12.48" duration="51.00" routeLength="394.90" waitingTime="0.00" waitingCount="0" stopTime="0.00" timeLoss="19.82" rerouteNo="0" devices="tripinfo_car_67" vType="typeCar" speedFactor="0.91" vaporized=""/>
    <tripinfo id="car_74" depart="190.00" departLane="s2A_0" departPos="5.10" departSpeed="0.00" departDelay="0.00" arrival="230.00" arrivalLane="A2n_1" arrivalPos="189.60" arrivalSpeed="12.95" duration="40.00" routeLength="394.90" waitingTime="0.00" waitingCount="0" stopTime="0.00" timeLoss="9.66" rerouteNo="0" devices="tripinfo_car_74" vType="typeCar" speedFactor="0.96" vaporized=""/>
    <tripinfo id="car_66" depart="175.00" departLane="s2A_0" departPos="5.10" departSpeed="0.00" departDelay="0.00" arrival="236.00" arrivalLane="A2n_0" arrivalPos="189.60" arrivalSpeed="12.22" duration="61.00" routeLength="394.90" waitingTime="10.00" waitingCount="1" stopTime="0.00" timeLoss="29.38" rerouteNo="0" devices="tripinfo_car_66" vType="typeCar" speedFactor="0.91" vaporized=""/>
    <tripinfo id="car_75" depart="191.00" departLane="w2A_0" departPos="5.10" departSpeed="0.00" departDelay="1.00" arrival="245.00" arrivalLane="A2e_1" arrivalPos="189.60" arrivalSpeed="13.45" duration="54.00" routeLength="394.90" waitingTime="2.00" waitingCount="1" stopTime="0.00" timeLoss="24.91" rerouteNo="0" devices="tripinfo_car_75" vType="typeCar" speedFactor="0.98" vaporized=""/>
    <tripinfo id="car_73" depart="192.00" departLane="e2A_0" departPos="5.10" departSpeed="0.00" departDelay="3.00" arrival="246.00" arrivalLane="A2w_1" arrivalPos="189.60" arrivalSpeed="14.31" duration="54.00" routeLength="394.90" waitingTime="1.00" waitingCount="1" stopTime="0.00" timeLoss="27.02" rerouteNo="0" devices="tripinfo_car_73" vType="typeCar" speedFactor="1.06" vaporized=""/>